 VARIABLES = "X",  "Y"
 ZONE N=       16908 , E=       22874 , F=FEPOINT, ET=QUADRILATERAL
       -0.0124497600       -0.0270510864
       -0.0097778992       -0.0269030541
       -0.0110360299       -0.0251186496
       -0.0091804178       -0.0248464785
       -0.0124497600       -0.0250939317
       -0.0080144107       -0.0276198570
       -0.0103034019       -0.0233429930
       -0.0078695414       -0.0260747174
       -0.0124497600       -0.0231751945
       -0.0085593531       -0.0230291011
       -0.0074010617       -0.0243441786
       -0.0064263062       -0.0273315396
       -0.0096039603       -0.0215899849
       -0.0111241336       -0.0219087218
       -0.0061004762       -0.0255815428
       -0.0079730378       -0.0213079902
       -0.0068968395       -0.0226484787
       -0.0124497600       -0.0212881429
       -0.0057243184       -0.0238911712
       -0.0047463032       -0.0268212543
       -0.0090516743       -0.0199272220
       -0.0108234928       -0.0202427258
       -0.0044602153       -0.0250606090
       -0.0033003994       -0.0278137721
       -0.0073921124       -0.0197164361
       -0.0063846666       -0.0210464378
       -0.0053036781       -0.0222874968
       -0.0124497600       -0.0194420731
       -0.0041539901       -0.0234260955
       -0.0031176430       -0.0260861242
       -0.0085251287       -0.0179098541
       -0.0099971447       -0.0187708914
       -0.0113349668       -0.0186323025
       -0.0029332343       -0.0244592001
       -0.0016763984       -0.0270113601
       -0.0066411410       -0.0184011651
       -0.0057950396       -0.0196518633
       -0.0048337247       -0.0208090198
       -0.0037904078       -0.0219130953
       -0.0124497600       -0.0176442131
       -0.0027071950       -0.0229261600
       -0.0015646006       -0.0253495358
       -0.0070047879       -0.0170795909
       -0.0107064547       -0.0170050683
       -0.0015681609       -0.0238357437
        0.0000311234       -0.0260831094
       -0.0003951781       -0.0277442879
       -0.0057882716       -0.0174941188
       -0.0080115091       -0.0163865749
       -0.0051283017       -0.0184071318
       -0.0093466599       -0.0159582594
       -0.0043083086       -0.0194792565
       -0.0033717639       -0.0205241251
       -0.0023782599       -0.0215105891
       -0.0124497600       -0.0158582134
       -0.0013648497       -0.0224273542
       -0.0002515750       -0.0244714147
       -0.0057565985       -0.0163450100
       -0.0069070269       -0.0156900998
       -0.0108372284       -0.0151386167
       -0.0003750581       -0.0232212725
        0.0014638681       -0.0275598653
        0.0009249087       -0.0247577497
       -0.0045643244       -0.0171259272
       -0.0081461772       -0.0150149272
       -0.0037849908       -0.0182436125
       -0.0094400456       -0.0142953558
       -0.0029341117       -0.0192539685
       -0.0020107634       -0.0202092909
       -0.0010319681       -0.0211219608
       -0.0124497600       -0.0140969674
        0.0001197383       -0.0220606284
        0.0018565163       -0.0257888548
        0.0009564664       -0.0232879656
       -0.0057454489       -0.0150815938
       -0.0046700707       -0.0157242078
       -0.0068908383       -0.0143825473
       -0.0108075271       -0.0133229804
        0.0031133987       -0.0266477744
        0.0021361196       -0.0242486199
        0.0032327640       -0.0282516254
       -0.0032454624       -0.0171759620
       -0.0037779801       -0.0162674091
       -0.0080814753       -0.0136088743
       -0.0025000838       -0.0180957736
       -0.0092958940       -0.0126677725
       -0.0016616190       -0.0190000990
       -0.0007531586       -0.0198756809
        0.0004120828       -0.0207728584
       -0.0124497600       -0.0123350781
        0.0015192457       -0.0216422012
        0.0032538908       -0.0251312804
        0.0023679835       -0.0229023334
       -0.0056971227       -0.0138653471
       -0.0046508832       -0.0145508509
       -0.0035835728       -0.0151635376
       -0.0067661211       -0.0131070543
       -0.0106038257       -0.0114265428
        0.0049945284       -0.0271635461
        0.0044301198       -0.0258182944
        0.0034085372       -0.0237602781
        0.0050003040       -0.0288898499
       -0.0027594591       -0.0161374759
       -0.0020782138       -0.0170133363
       -0.0078402917       -0.0122406758
       -0.0013238845       -0.0178697616
       -0.0088740200       -0.0112065863
       -0.0005034948       -0.0186972451
        0.0005512057       -0.0195300144
        0.0015106466       -0.0202564040
       -0.0124497600       -0.0105647149
        0.0027723918       -0.0217917123
        0.0048273044       -0.0244821638
        0.0036186073       -0.0225278070
       -0.0055695137       -0.0126907257
       -0.0046208054       -0.0133989967
       -0.0037107566       -0.0140044540
       -0.0023552474       -0.0151700795
       -0.0065199285       -0.0118896495
       -0.0096446090       -0.0099232917
        0.0027263774       -0.0206386643
       -0.0110802393       -0.0098760472
        0.0057848133       -0.0257035573
        0.0063092010       -0.0280886911
        0.0044943637       -0.0232351491
        0.0066555976       -0.0294474467
       -0.0016902627       -0.0159897464
       -0.0009956634       -0.0167942387
       -0.0029016871       -0.0144200197
       -0.0074279373       -0.0109977015
       -0.0002433610       -0.0175925779
       -0.0082134678       -0.0099565950
        0.0007148970       -0.0183814104
        0.0015580480       -0.0190698101
        0.0023998987       -0.0196207784
       -0.0124497600       -0.0088309583
        0.0037754731       -0.0214066787
        0.0067418638       -0.0269018980
        0.0063401611       -0.0243917153
        0.0056076246       -0.0232991593
        0.0048586465       -0.0221143585
       -0.0044939005       -0.0123196411
       -0.0053486901       -0.0115723408
       -0.0036274156       -0.0129608839
       -0.0027794733       -0.0135202402
       -0.0013465984       -0.0150188737
       -0.0020095255       -0.0142344577
       -0.0061570400       -0.0107617401
       -0.0087430788       -0.0084551708
       -0.0103740869       -0.0084668366
        0.0034618080       -0.0194207168
        0.0038469261       -0.0204316577
        0.0072294548       -0.0254938171
        0.0078839411       -0.0282320843
        0.0082507817       -0.0300540084
       -0.0006787594       -0.0157876727
        0.0000193796       -0.0165191708
       -0.0068993729       -0.0099019282
        0.0008914767       -0.0173287046
       -0.0075577436       -0.0090239056
        0.0017135541       -0.0180140919
        0.0025706928       -0.0186590525
       -0.0112496031       -0.0071647138
        0.0047583526       -0.0209135555
        0.0081737407       -0.0266356246
        0.0078231447       -0.0241165917
        0.0068536297       -0.0231962584
        0.0061735842       -0.0221782143
       -0.0035102846       -0.0119600768
       -0.0043118898       -0.0113097983
       -0.0050329869       -0.0105169925
       -0.0026864246       -0.0125659955
       -0.0017848704       -0.0131654328
       -0.0003861421       -0.0148391251
       -0.0010270122       -0.0140930778
       -0.0057367877       -0.0096806387
       -0.0095123854       -0.0071207841
       -0.0073795798       -0.0080779203
        0.0046960966       -0.0198250445
        0.0034904038       -0.0182433164
       -0.0124497600       -0.0071635511
        0.0056545964       -0.0213042129
        0.0085317243       -0.0252850853
        0.0096949375       -0.0291741870
        0.0093393147       -0.0275418207
        0.0095936486       -0.0308342788
        0.0002948959       -0.0155573539
        0.0010413656       -0.0162419153
       -0.0064665449       -0.0088858652
        0.0018617232       -0.0170200844
       -0.0081451613       -0.0073121414
        0.0026621951       -0.0176391309
        0.0046207604       -0.0186566691
       -0.0105162979       -0.0057186897
       -0.0124497600       -0.0055465018
        0.0057092672       -0.0203530536
        0.0095039988       -0.0261638260
        0.0089292188       -0.0242604146
        0.0079031605       -0.0229727502
        0.0073315352       -0.0220931538
        0.0066932412       -0.0210024986
       -0.0033698709       -0.0109769942
       -0.0026346794       -0.0115785469
       -0.0040708636       -0.0104103284
       -0.0044164097       -0.0092965972
       -0.0018961420       -0.0121447537
       -0.0006686563       -0.0132048278
       -0.0000892375       -0.0139535120
        0.0005418084       -0.0146504742
       -0.0054149480       -0.0087163415
       -0.0084630990       -0.0064245701
       -0.0069494355       -0.0071180193
       -0.0059628059       -0.0078098851
        0.0056653931       -0.0193236568
        0.0042222865       -0.0177335351
        0.0035178413       -0.0172197927
       -0.0091109125       -0.0056256115
        0.0097510504       -0.0249980337
        0.0110605578       -0.0305478973
        0.0105508196       -0.0280651573
        0.0105942387       -0.0268748108
        0.0089122193       -0.0232188725
        0.0012375686       -0.0153181964
        0.0019672644       -0.0159497695
       -0.0011755130       -0.0125231350
        0.0027859780       -0.0166678464
       -0.0074851445       -0.0063505986
        0.0057491185       -0.0183324555
        0.0050613286       -0.0176704713
       -0.0096451918       -0.0045269197
       -0.0109956507       -0.0043362095
        0.0065813519       -0.0198765433
        0.0106961595       -0.0256546143
        0.0114979877       -0.0290237109
        0.0098715089       -0.0239262826
        0.0084702925       -0.0220952651
        0.0078900667       -0.0212011223
        0.0120940560       -0.0317268837
       -0.0033042809       -0.0099908568
       -0.0025371819       -0.0106041280
       -0.0018403654       -0.0112220873
       -0.0047016462       -0.0079716506
       -0.0011305631       -0.0117444872
        0.0002057013       -0.0131098009
       -0.0003361616       -0.0123332693
        0.0007819448       -0.0137950997
        0.0014124779       -0.0144383624
       -0.0079667339       -0.0054955581
       -0.0065227857       -0.0062303622
       -0.0060389157       -0.0069033369
        0.0065633724       -0.0188898385
        0.0044076118       -0.0168383960
        0.0036216529       -0.0163010778
       -0.0084413802       -0.0046078601
       -0.0124497600       -0.0039510385
        0.0075143972       -0.0202655774
        0.0108166213       -0.0245481870
        0.0127462665       -0.0299706855
        0.0117054972       -0.0276253765
        0.0117547157       -0.0263544772
        0.0100005083       -0.0230426535
        0.0096526559       -0.0220239605
        0.0021184032       -0.0150500467
        0.0028986494       -0.0156333916
       -0.0032941693       -0.0090634872
       -0.0038802448       -0.0084408584
       -0.0051950370       -0.0070744474
       -0.0069613022       -0.0054718937
        0.0066396567       -0.0179804453
        0.0059768260       -0.0174429678
        0.0053799882       -0.0168317998
       -0.0087928792       -0.0035964341
       -0.0099475311       -0.0033028199
       -0.0111375065       -0.0028720545
        0.0074284774       -0.0193411814
        0.0117879764       -0.0250976411
        0.0127477933       -0.0283959589
        0.0108602251       -0.0235107468
        0.0089662931       -0.0211695038
        0.0083894156       -0.0205058838
        0.0131373034       -0.0327531108
        0.0136957987       -0.0314033875
       -0.0023541362       -0.0096459413
       -0.0017343741       -0.0103690699
       -0.0010710253       -0.0109207591
       -0.0037625679       -0.0076395976
       -0.0004173783       -0.0114088923
        0.0010387463       -0.0129966619
        0.0005345039       -0.0123729189
        0.0015965987       -0.0136079523
        0.0022009394       -0.0141782937
       -0.0043436959       -0.0070136037
       -0.0073788798       -0.0046560399
       -0.0060406872       -0.0054601097
       -0.0056235673       -0.0062055323
        0.0074096727       -0.0184473527
        0.0049566137       -0.0162557634
        0.0043504714       -0.0159221692
        0.0036926955       -0.0153320291
       -0.0077335475       -0.0037908646
       -0.0124497600       -0.0023749335
        0.0082817680       -0.0197085968
        0.0117837590       -0.0240291802
        0.0139342237       -0.0288674741
        0.0127855742       -0.0270163074
        0.0128218350       -0.0257781450
        0.0108065347       -0.0225010287
        0.0099056427       -0.0209326743
        0.0144406791       -0.0301341895
        0.0030767697       -0.0147039119
       -0.0030656156       -0.0082077660
       -0.0025046442       -0.0087424319
        0.0001758296       -0.0117796646
       -0.0047653882       -0.0062672571
       -0.0064374567       -0.0047104115
        0.0074479306       -0.0176025732
        0.0067795228       -0.0171321999
        0.0061987098       -0.0166081703
        0.0056571900       -0.0160633382
       -0.0079675971       -0.0028194541
       -0.0089855754       -0.0024945068
       -0.0100748513       -0.0020135871
       -0.0111891729       -0.0013836964
        0.0081891892       -0.0188392148
        0.0128218320       -0.0244815025
        0.0138155970       -0.0275839733
        0.0116827497       -0.0229862468
        0.0107763163       -0.0215338174
        0.0092366805       -0.0201730939
        0.0145005601       -0.0326895121
        0.0151642586       -0.0313379572
       -0.0015160318       -0.0096799484
       -0.0009368980       -0.0101542054
       -0.0003325060       -0.0106339225
       -0.0016056097       -0.0087968962
       -0.0027634532       -0.0073772689
       -0.0035387370       -0.0068118965
        0.0002765086       -0.0110892157
        0.0018088606       -0.0128342327
        0.0013076546       -0.0122369155
        0.0008356442       -0.0116050175
        0.0023446310       -0.0133737273
        0.0028692923       -0.0138764877
       -0.0040069660       -0.0061974348
       -0.0067858417       -0.0039372113
       -0.0052100881       -0.0054668145
       -0.0055788286       -0.0047531653
        0.0081515054       -0.0180067168
        0.0050870274       -0.0155684495
        0.0044741222       -0.0150803667
        0.0039201039       -0.0145695011
       -0.0070430338       -0.0030836117
       -0.0124497600       -0.0007653357
        0.0090167351       -0.0191958982
        0.0125405576       -0.0234379922
        0.0148818967       -0.0279783064
        0.0152812426       -0.0290856811
        0.0138261751       -0.0263625633
        0.0138807129       -0.0252505264
        0.0116383649       -0.0220196789
        0.0101888930       -0.0200273099
        0.0109063370       -0.0206261878
        0.0154325927       -0.0338366140
        0.0158600803       -0.0301577375
       -0.0022588314       -0.0080605225
        0.0035186791       -0.0139676718
       -0.0043905185       -0.0055432780
       -0.0059375763       -0.0040481304
        0.0081482705       -0.0172178246
        0.0075233439       -0.0168067596
        0.0069260447       -0.0163375786
        0.0063901453       -0.0158306805
        0.0058060286       -0.0153295925
       -0.0071763399       -0.0021511578
       -0.0080790447       -0.0018083007
       -0.0090128350       -0.0013628753
       -0.0099972051       -0.0004607771
       -0.0112161546        0.0001361952
        0.0089155663       -0.0183450938
        0.0133195312       -0.0236553556
        0.0148092885       -0.0268333065
        0.0139959202       -0.0241985890
        0.0124635939       -0.0224549934
        0.0116577477       -0.0211252128
        0.0097427911       -0.0194611920
        0.0160038897       -0.0324385125
        0.0165427177       -0.0311853212
       -0.0008128471       -0.0093916214
       -0.0002207882       -0.0098888650
        0.0003751613       -0.0103701271
       -0.0016049548       -0.0079718817
       -0.0028511280       -0.0066286122
       -0.0019217407       -0.0073722498
       -0.0032797748       -0.0060706749
        0.0009735021       -0.0108600088
        0.0025440398       -0.0126456697
        0.0020356591       -0.0121289216
        0.0015861907       -0.0113864656
        0.0031499821       -0.0131702407
       -0.0036851518       -0.0055193283
       -0.0062100508       -0.0032941064
       -0.0047770267       -0.0047555606
       -0.0051798980       -0.0041152728
        0.0088257061       -0.0175636624
        0.0052168658       -0.0148396318
        0.0046751300       -0.0143722823
        0.0042188087       -0.0138613472
       -0.0063806226       -0.0024852568
       -0.0124497600        0.0008251494
        0.0097918132       -0.0186498049
        0.0132897983       -0.0228516581
        0.0156152560       -0.0272542793
        0.0160071697       -0.0281602947
        0.0165360832       -0.0291225090
        0.0148332064       -0.0257754512
        0.0148278120       -0.0247393244
        0.0124520927       -0.0215622494
        0.0104370025       -0.0192142783
        0.0110364604       -0.0197356413
        0.0117347060       -0.0202891521
        0.0166989304       -0.0348365617
        0.0170400566       -0.0334230202
        0.0171974221       -0.0300944622
       -0.0006553547       -0.0086728190
       -0.0011003803       -0.0081984381
       -0.0022129188       -0.0067465193
        0.0038274806       -0.0133791912
       -0.0040293708       -0.0049735836
       -0.0054674547       -0.0034277401
        0.0087929653       -0.0168301052
        0.0081884084       -0.0164738276
        0.0076258565       -0.0160642369
        0.0070824809       -0.0156041653
        0.0065746719       -0.0150564327
        0.0058941109       -0.0145901631
       -0.0063211329       -0.0014990988
       -0.0072168701       -0.0011689570
       -0.0080772771       -0.0008043321
       -0.0088839630       -0.0003375367
       -0.0101433706        0.0009839095
       -0.0112582139        0.0016231369
        0.0095478781       -0.0178361054
        0.0140879881       -0.0232741838
        0.0158497067       -0.0262695068
        0.0148401155       -0.0237612841
        0.0132446923       -0.0219602902
        0.0124657722       -0.0207246944
        0.0174372287       -0.0321120024
        0.0177832535       -0.0310023707
       -0.0000930373       -0.0091705394
        0.0004737227       -0.0096506884
        0.0010484033       -0.0101229603
       -0.0011116337       -0.0074174783
       -0.0025183687       -0.0060613446
       -0.0015010847       -0.0067714136
       -0.0028891227       -0.0053625885
        0.0016156712       -0.0105707934
        0.0027090307       -0.0119633687
        0.0032202434       -0.0123888348
        0.0022671652       -0.0115313183
        0.0037773716       -0.0127520257
       -0.0034542218       -0.0049405667
       -0.0056607905       -0.0027224952
       -0.0045566607       -0.0040855834
       -0.0047976374       -0.0034969493
       -0.0042339572       -0.0044664936
        0.0094215031       -0.0171159801
        0.0053720751       -0.0141591728
        0.0048836197       -0.0136870133
        0.0044309403       -0.0131406400
       -0.0057975409       -0.0020561643
       -0.0090990138        0.0005926352
       -0.0124497600        0.0023846805
        0.0102048370       -0.0180073353
        0.0140702608       -0.0224127622
        0.0165470068       -0.0272201034
        0.0170920482       -0.0281396737
        0.0177404038       -0.0290547905
        0.0156974886       -0.0251873472
        0.0156433152       -0.0242069005
        0.0132291754       -0.0211178097
        0.0111892936       -0.0189648190
        0.0106241774       -0.0184820687
        0.0117952966       -0.0194145409
        0.0124991648       -0.0199287539
        0.0182299115       -0.0343551434
        0.0180415290       -0.0358208275
        0.0184643658       -0.0329122250
        0.0187797355       -0.0301289054
        0.0000566633       -0.0084698851
       -0.0004528090       -0.0079867688
       -0.0018397038       -0.0061517536
        0.0022196762       -0.0109316711
       -0.0037293457       -0.0044948917
       -0.0049818816       -0.0028095358
        0.0093609726       -0.0164455619
        0.0088147208       -0.0161357986
        0.0082689346       -0.0157764350
        0.0077636103       -0.0153849393
        0.0072978373       -0.0149703461
        0.0065113837       -0.0142743839
        0.0060066073       -0.0139120025
       -0.0064970318       -0.0005843364
       -0.0054683231       -0.0014926897
       -0.0072705831       -0.0002041496
       -0.0081336067        0.0002509085
       -0.0101283341        0.0023705378
       -0.0091178116        0.0017538937
       -0.0112283479        0.0031563154
        0.0102264855       -0.0172709543
        0.0148393365       -0.0228520524
        0.0170417797       -0.0263516858
        0.0165988325       -0.0254847665
        0.0155929263       -0.0232990277
        0.0140204475       -0.0215026477
        0.0131995150       -0.0203269845
        0.0187245936       -0.0315631502
        0.0005910648       -0.0089460600
        0.0011350584       -0.0094102766
        0.0016830824       -0.0098521182
       -0.0007921443       -0.0067245060
       -0.0003099456       -0.0072401946
       -0.0021420506       -0.0055464301
       -0.0011695977       -0.0061556019
       -0.0030278198       -0.0048080850
        0.0022362725       -0.0102396287
        0.0033187521       -0.0116820468
        0.0028092922       -0.0112776004
        0.0038114556       -0.0120529368
        0.0043371878       -0.0124028739
       -0.0032662108       -0.0044449872
       -0.0051753104       -0.0021646679
       -0.0039895423       -0.0040470622
       -0.0042254814       -0.0035822136
       -0.0043234001       -0.0028962825
        0.0099059072       -0.0166991606
        0.0069860327       -0.0145456243
        0.0055459790       -0.0135072134
        0.0051186000       -0.0130760730
       -0.0057618014       -0.0008376479
       -0.0081828473        0.0012669354
       -0.0124497600        0.0039669210
        0.0108022495       -0.0177517521
        0.0148463919       -0.0219823486
        0.0175690264       -0.0271920770
        0.0180917591       -0.0280274345
        0.0187980343       -0.0288017713
        0.0164549331       -0.0245772560
        0.0164052054       -0.0236806766
        0.0139515763       -0.0206690252
        0.0113214856       -0.0182292981
        0.0118924646       -0.0186743660
        0.0125088734       -0.0190676832
        0.0131803433       -0.0195563624
        0.0195140600       -0.0352486282
        0.0196207200       -0.0337980766
        0.0194546112       -0.0368219465
        0.0197372396       -0.0323363215
        0.0198727433       -0.0310439238
        0.0007313771       -0.0082614244
        0.0002266887       -0.0077997529
       -0.0015205431       -0.0056185282
       -0.0022913673       -0.0049933273
       -0.0026786462       -0.0048309757
        0.0028453713       -0.0106339919
        0.0048166857       -0.0126524428
       -0.0034896405       -0.0040532838
       -0.0045633890       -0.0022797215
        0.0099215502       -0.0161173321
        0.0093978167       -0.0158062685
        0.0088825899       -0.0154764800
        0.0083801775       -0.0151214206
        0.0079238080       -0.0147472179
        0.0075064694       -0.0143541513
        0.0070613134       -0.0139801090
        0.0066022442       -0.0136505561
        0.0061516775       -0.0132817562
       -0.0058770093       -0.0000394193
       -0.0065641064        0.0003237234
       -0.0047575713       -0.0016031178
       -0.0049998872       -0.0009186468
       -0.0073259509        0.0008047693
       -0.0090392168        0.0029670883
       -0.0100332759        0.0037874099
       -0.0081349535        0.0023098458
       -0.0111007188        0.0047030373
        0.0109371043       -0.0170731242
        0.0105053251       -0.0165299634
        0.0155410200       -0.0224426768
        0.0175958989       -0.0255809449
        0.0180521139       -0.0263401596
        0.0195567342       -0.0292467796
        0.0172123978       -0.0248844780
        0.0162560369       -0.0228491074
        0.0148621244       -0.0210236950
        0.0138303114       -0.0199348855
        0.0201213635       -0.0299532209
        0.0012446241       -0.0087189662
        0.0017639462       -0.0091606264
        0.0022900132       -0.0095684961
       -0.0000899893       -0.0066081562
       -0.0005252026       -0.0061207710
        0.0003802578       -0.0070732953
       -0.0017823900       -0.0050900103
       -0.0008693088       -0.0055370683
       -0.0028229963       -0.0044135074
        0.0028324655       -0.0099343133
        0.0033984516       -0.0110046292
        0.0038898437       -0.0113981417
        0.0043853407       -0.0117463722
        0.0048843069       -0.0120884377
       -0.0030272320       -0.0040359595
       -0.0037137861       -0.0036506376
       -0.0039038815       -0.0032234149
       -0.0039984243       -0.0023632938
        0.0057309572       -0.0128849719
        0.0053322668       -0.0124733847
       -0.0052948835       -0.0003285498
       -0.0073067737        0.0017651545
       -0.0124497600        0.0056006418
        0.0114410932       -0.0175343516
        0.0155609413       -0.0216308106
        0.0185609576       -0.0271218212
        0.0189536368       -0.0278628961
        0.0196723819       -0.0282936611
        0.0173887186       -0.0240351614
        0.0172001706       -0.0230968068
        0.0145931581       -0.0201424681
        0.0119680373       -0.0179660213
        0.0125434939       -0.0183622050
        0.0131963721       -0.0186900354
        0.0138076677       -0.0192175339
        0.0208068502       -0.0345699619
        0.0208462325       -0.0360906110
        0.0208584387       -0.0332005931
        0.0209975903       -0.0378522285
        0.0209030372       -0.0317946997
        0.0210066292       -0.0306264780
        0.0013819490       -0.0080514125
        0.0008917235       -0.0076065387
       -0.0013049965       -0.0051623007
       -0.0023819571       -0.0045108951
       -0.0019383576       -0.0046239706
        0.0034911667       -0.0103282362
       -0.0032528867       -0.0036576946
       -0.0041686747       -0.0017818993
       -0.0037545272       -0.0028035092
        0.0104368319       -0.0158033237
        0.0099474526       -0.0154951979
        0.0094553283       -0.0151787123
        0.0089697900       -0.0148456703
        0.0084983815       -0.0144935007
        0.0080612594       -0.0141272337
        0.0076204832       -0.0137553775
        0.0071698958       -0.0134010536
        0.0067300530       -0.0130489638
        0.0063024765       -0.0126756806
       -0.0052402885        0.0003654816
       -0.0058422102        0.0007784572
       -0.0065700840        0.0012685511
       -0.0042076539       -0.0009867454
       -0.0046310795       -0.0001915339
       -0.0080207087        0.0034020431
       -0.0088626429        0.0042082272
       -0.0097994274        0.0051718070
       -0.0072028554        0.0027205796
       -0.0108822623        0.0063402006
        0.0111658380       -0.0164604361
        0.0115829552       -0.0168865225
        0.0161968415       -0.0220870803
        0.0180005675       -0.0247867797
        0.0184845851       -0.0255216000
        0.0190000886       -0.0263181622
        0.0204455358       -0.0288565097
        0.0167983717       -0.0224331244
        0.0157224837       -0.0208447942
        0.0152357100       -0.0204320648
        0.0142894115       -0.0195470031
        0.0211456874       -0.0295496190
        0.0018670802       -0.0084917636
        0.0023611184       -0.0089073325
        0.0028581925       -0.0092817171
        0.0005562956       -0.0064533796
        0.0001106033       -0.0060120667
       -0.0002806688       -0.0056078446
        0.0010368290       -0.0068993830
       -0.0014355201       -0.0046696467
       -0.0009000802       -0.0048949888
       -0.0025642211       -0.0040358609
        0.0033610658       -0.0096013182
        0.0039753652       -0.0107739469
        0.0044673218       -0.0111457223
        0.0049636870       -0.0114768869
        0.0054471214       -0.0118747981
       -0.0028308807       -0.0036578897
       -0.0034761367       -0.0032503187
       -0.0034835317       -0.0024273033
       -0.0036440591       -0.0019554559
        0.0108795440       -0.0160451111
        0.0058915390       -0.0122885376
       -0.0065009916        0.0021288712
       -0.0124497600        0.0072323656
        0.0120574300       -0.0172965740
        0.0163019227       -0.0214061440
        0.0195904789       -0.0271759467
        0.0205601669       -0.0278410355
        0.0180193975       -0.0234189255
        0.0182392861       -0.0241004871
        0.0174080257       -0.0223123640
        0.0152763666       -0.0197912938
        0.0148416369       -0.0194048382
        0.0125621026       -0.0176780052
        0.0130772938       -0.0180079252
        0.0139571745       -0.0185388738
        0.0144033919       -0.0189470487
        0.0219664476       -0.0338721729
        0.0220261939       -0.0352208155
        0.0222697924       -0.0366839548
        0.0220113258       -0.0326226605
        0.0218911521       -0.0393427375
        0.0221207129       -0.0312586011
        0.0219398649       -0.0301618502
        0.0019977682       -0.0078474815
        0.0015543520       -0.0074009736
       -0.0003586239       -0.0050935943
       -0.0020856662       -0.0042073506
       -0.0016884693       -0.0042843648
        0.0038278395       -0.0098405999
        0.0041289011       -0.0102142561