TITLE = "Visualization of the surface solution"
VARIABLES = "x","y","Density","X-Momentum","Y-Momentum","Energy","TKE","Omega","Pressure","Temperature","C<sub>p</sub>","Mach","Entropy","Total_Pressure","MachIs","SoundSpeed","<greek>m</greek>","C<sub>f</sub>_x","C<sub>f</sub>_y","h","y<sup>+</sup>","<greek>m</greek><sub>t</sub>"
ZONE NODES= 347, ELEMENTS= 347, DATAPACKING=POINT, ZONETYPE=FELINESEG
1.821613e-06	5.983836e-05	1.354612e+01	0.000000e+00	0.000000e+00	2.661122e+06	1.000000e-10	1.110407e+11	1.194844e+06	3.072843e+02	1.680848e+00	0.000000e+00	2.913729e+03	1.194844e+06	4.889318e-01	3.575052e+02	1.880182e-05	2.037964e-05	9.280398e-04	-1.314496e+03	2.030591e-01	1.219959e-20	
0.000000e+00	-1.512400e-04	1.359284e+01	0.000000e+00	0.000000e+00	2.674162e+06	1.000000e-10	1.107811e+11	1.200699e+06	3.077284e+02	1.731355e+00	0.000000e+00	2.913664e+03	1.200699e+06	4.954130e-01	3.577635e+02	1.882258e-05	-2.456740e-06	4.553071e-04	-1.373282e+03	1.423018e-01	1.227036e-20	
8.874385e-06	2.528782e-04	1.349184e+01	0.000000e+00	0.000000e+00	2.646223e+06	1.000000e-10	1.113511e+11	1.188154e+06	3.067930e+02	1.623137e+00	0.000000e+00	2.913859e+03	1.188154e+06	4.813668e-01	3.572193e+02	1.877883e-05	8.147727e-05	1.479509e-03	-1.259069e+03	2.563503e-01	1.211683e-20	
2.195453e-05	4.254230e-04	1.342782e+01	0.000000e+00	0.000000e+00	2.628898e+06	1.000000e-10	1.117271e+11	1.180375e+06	3.062377e+02	1.556033e+00	0.000000e+00	2.914066e+03	1.180375e+06	4.723460e-01	3.568959e+02	1.875283e-05	2.043555e-04	2.083578e-03	-1.235164e+03	3.044103e-01	1.201874e-20	
4.116805e-05	5.821396e-04	1.335741e+01	0.000000e+00	0.000000e+00	2.610127e+06	1.000000e-10	1.121519e+11	1.171947e+06	3.056538e+02	1.483327e+00	0.000000e+00	2.914355e+03	1.171947e+06	4.622824e-01	3.565555e+02	1.872547e-05	3.992280e-04	2.672872e-03	-1.279439e+03	3.454557e-01	1.191043e-20	
6.775125e-05	7.320365e-04	1.328547e+01	0.000000e+00	0.000000e+00	2.591180e+06	1.000000e-10	1.125962e+11	1.163440e+06	3.050780e+02	1.409935e+00	0.000000e+00	2.914700e+03	1.163440e+06	4.517969e-01	3.562195e+02	1.869846e-05	6.461170e-04	3.170733e-03	-1.399406e+03	3.775366e-01	1.179953e-20	
1.026138e-04	8.836765e-04	1.323220e+01	0.000000e+00	0.000000e+00	2.577757e+06	1.000000e-10	1.129471e+11	1.157413e+06	3.047194e+02	1.357942e+00	0.000000e+00	2.915101e+03	1.157413e+06	4.441560e-01	3.560101e+02	1.868162e-05	9.261552e-04	3.601281e-03	-1.533119e+03	4.042616e-01	1.171569e-20	
1.479344e-04	1.043822e-03	1.318043e+01	0.000000e+00	0.000000e+00	2.565048e+06	1.000000e-10	1.133015e+11	1.151707e+06	3.044080e+02	1.308718e+00	0.000000e+00	2.915572e+03	1.151707e+06	4.367495e-01	3.558281e+02	1.866700e-05	1.254109e-03	4.072752e-03	-1.646941e+03	4.322641e-01	1.163335e-20	
2.053634e-04	1.217359e-03	1.310042e+01	0.000000e+00	0.000000e+00	2.544567e+06	1.000000e-10	1.138248e+11	1.142510e+06	3.038217e+02	1.229386e+00	0.000000e+00	2.916088e+03	1.142510e+06	4.244355e-01	3.554853e+02	1.863944e-05	1.607368e-03	4.492551e-03	-1.767441e+03	4.566819e-01	1.150957e-20	
2.786558e-04	1.409185e-03	1.302663e+01	0.000000e+00	0.000000e+00	2.525919e+06	1.000000e-10	1.143195e+11	1.134138e+06	3.033035e+02	1.157156e+00	0.000000e+00	2.916618e+03	1.134138e+06	4.127861e-01	3.551820e+02	1.861506e-05	1.967609e-03	4.834865e-03	-1.851786e+03	4.769382e-01	1.139521e-20	
3.745649e-04	1.633125e-03	1.294054e+01	0.000000e+00	0.000000e+00	2.504079e+06	1.000000e-10	1.148987e+11	1.124332e+06	3.026816e+02	1.072564e+00	0.000000e+00	2.917209e+03	1.124332e+06	3.985595e-01	3.548176e+02	1.858577e-05	2.362988e-03	5.179614e-03	-1.891120e+03	4.972235e-01	1.126282e-20	
4.920507e-04	1.876942e-03	1.281734e+01	0.000000e+00	0.000000e+00	2.472087e+06	1.000000e-10	1.157104e+11	1.109967e+06	3.016866e+02	9.486448e-01	0.000000e+00	2.917850e+03	1.109967e+06	3.764309e-01	3.542340e+02	1.853886e-05	2.773018e-03	5.486908e-03	-1.868770e+03	5.155324e-01	1.107734e-20	
6.118413e-04	2.102619e-03	1.270182e+01	0.000000e+00	0.000000e+00	2.442772e+06	1.000000e-10	1.165056e+11	1.096804e+06	3.008203e+02	8.350972e-01	0.000000e+00	2.918610e+03	1.096804e+06	3.545828e-01	3.537250e+02	1.849795e-05	3.256782e-03	5.893586e-03	-1.715539e+03	5.382837e-01	1.090258e-20	
7.230264e-04	2.294923e-03	1.248633e+01	0.000000e+00	0.000000e+00	2.386401e+06	1.000000e-10	1.179503e+11	1.071494e+06	2.989503e+02	6.167531e-01	0.000000e+00	2.919535e+03	1.071494e+06	3.070831e-01	3.526239e+02	1.840945e-05	3.810805e-03	6.311558e-03	-1.527114e+03	5.611404e-01	1.058636e-20	
8.262581e-04	2.457741e-03	1.227084e+01	0.000000e+00	0.000000e+00	2.330264e+06	1.000000e-10	1.194328e+11	1.046289e+06	2.970444e+02	3.993149e-01	0.000000e+00	2.920444e+03	1.046289e+06	2.490381e-01	3.514980e+02	1.831897e-05	4.323504e-03	6.525173e-03	-1.360472e+03	5.760075e-01	1.027455e-20	
9.226627e-04	2.596221e-03	1.206924e+01	0.000000e+00	0.000000e+00	2.278186e+06	1.000000e-10	1.208642e+11	1.022905e+06	2.952565e+02	1.975973e-01	0.000000e+00	2.921339e+03	1.022905e+06	1.764922e-01	3.504386e+02	1.823385e-05	4.821122e-03	6.623918e-03	-1.241438e+03	5.871554e-01	9.986084e-21	
1.013708e-03	2.715286e-03	1.188144e+01	0.000000e+00	0.000000e+00	2.230125e+06	1.000000e-10	1.222413e+11	1.001326e+06	2.935962e+02	1.144171e-02	0.000000e+00	2.922236e+03	1.001326e+06	4.276780e-02	3.494519e+02	1.815456e-05	5.307241e-03	6.632290e-03	-1.169410e+03	5.957899e-01	9.719967e-21	
1.100817e-03	2.818855e-03	1.171071e+01	0.000000e+00	0.000000e+00	2.186899e+06	1.000000e-10	1.235351e+11	9.819175e+05	2.921029e+02	-1.559913e-01	0.000000e+00	2.923130e+03	9.819175e+05	1.589288e-01	3.485621e+02	1.808307e-05	5.772521e-03	6.555244e-03	-1.147908e+03	6.021713e-01	9.479951e-21	
1.185645e-03	2.910536e-03	1.155676e+01	0.000000e+00	0.000000e+00	2.148302e+06	1.000000e-10	1.247374e+11	9.645877e+05	2.907700e+02	-3.054894e-01	0.000000e+00	2.924005e+03	9.645877e+05	2.237046e-01	3.477659e+02	1.801912e-05	6.201522e-03	6.385840e-03	-1.183956e+03	6.060338e-01	9.265130e-21	
1.270838e-03	2.993929e-03	1.142286e+01	0.000000e+00	0.000000e+00	2.114993e+06	1.000000e-10	1.258100e+11	9.496320e+05	2.896171e+02	-4.345068e-01	0.000000e+00	2.924811e+03	9.496320e+05	2.681553e-01	3.470758e+02	1.796368e-05	6.561971e-03	6.105865e-03	-1.288905e+03	6.064651e-01	9.079678e-21	
1.359521e-03	3.072327e-03	1.132001e+01	0.000000e+00	0.000000e+00	2.089687e+06	1.000000e-10	1.266563e+11	9.382695e+05	2.887518e+02	-5.325264e-01	0.000000e+00	2.925494e+03	9.382695e+05	2.980294e-01	3.465569e+02	1.792200e-05	6.832914e-03	5.735102e-03	-1.479313e+03	6.036945e-01	8.937732e-21	
1.454919e-03	3.148435e-03	1.125269e+01	0.000000e+00	0.000000e+00	2.073406e+06	1.000000e-10	1.272273e+11	9.309595e+05	2.882161e+02	-5.955876e-01	0.000000e+00	2.926019e+03	9.309595e+05	3.159840e-01	3.462353e+02	1.789617e-05	7.011301e-03	5.314901e-03	-1.742029e+03	5.986070e-01	8.844626e-21	
1.559785e-03	3.224136e-03	1.123590e+01	0.000000e+00	0.000000e+00	2.070029e+06	1.000000e-10	1.274003e+11	9.294430e+05	2.881766e+02	-6.086699e-01	0.000000e+00	2.926360e+03	9.294430e+05	3.196047e-01	3.462116e+02	1.789426e-05	7.131570e-03	4.964006e-03	-2.040040e+03	5.945071e-01	8.819344e-21	
1.676037e-03	3.302346e-03	1.125998e+01	0.000000e+00	0.000000e+00	2.077412e+06	1.000000e-10	1.272646e+11	9.327582e+05	2.885861e+02	-5.800710e-01	0.000000e+00	2.926653e+03	9.327582e+05	3.116453e-01	3.464574e+02	1.791401e-05	7.320263e-03	4.802537e-03	-2.298716e+03	5.967386e-01	8.847565e-21	
1.813012e-03	3.390269e-03	1.128008e+01	0.000000e+00	0.000000e+00	2.084212e+06	1.000000e-10	1.271816e+11	9.358114e+05	2.890147e+02	-5.537322e-01	0.000000e+00	2.927090e+03	9.358114e+05	3.041647e-01	3.467146e+02	1.793467e-05	7.647297e-03	4.755995e-03	-2.424094e+03	6.050595e-01	8.869065e-21	
1.994782e-03	3.500579e-03	1.127787e+01	0.000000e+00	0.000000e+00	2.085493e+06	1.000000e-10	1.272848e+11	9.363862e+05	2.892490e+02	-5.487733e-01	0.000000e+00	2.927664e+03	9.363862e+05	3.027392e-01	3.468552e+02	1.794596e-05	8.057653e-03	4.690012e-03	-2.423853e+03	6.151890e-01	8.860066e-21	
2.243467e-03	3.640818e-03	1.124260e+01	0.000000e+00	0.000000e+00	2.078209e+06	1.000000e-10	1.276468e+11	9.331157e+05	2.891430e+02	-5.769869e-01	0.000000e+00	2.928329e+03	9.331157e+05	3.107770e-01	3.467916e+02	1.794085e-05	8.483861e-03	4.535055e-03	-2.363763e+03	6.241012e-01	8.807273e-21	
2.569940e-03	3.808031e-03	1.116467e+01	0.000000e+00	0.000000e+00	2.059749e+06	1.000000e-10	1.283412e+11	9.248272e+05	2.885750e+02	-6.484883e-01	0.000000e+00	2.929069e+03	9.248272e+05	3.304267e-01	3.464508e+02	1.791347e-05	8.888161e-03	4.308859e-03	-2.261151e+03	6.311704e-01	8.698880e-21	
2.921665e-03	3.969599e-03	1.103820e+01	0.000000e+00	0.000000e+00	2.028606e+06	1.000000e-10	1.294245e+11	9.108440e+05	2.874680e+02	-7.691164e-01	0.000000e+00	2.929882e+03	9.108440e+05	3.616308e-01	3.457857e+02	1.786005e-05	9.256781e-03	4.014504e-03	-2.103738e+03	6.361904e-01	8.528347e-21	
3.286693e-03	4.118874e-03	1.086350e+01	0.000000e+00	0.000000e+00	1.984658e+06	1.000000e-10	1.308987e+11	8.911114e+05	2.857631e+02	-9.393423e-01	0.000000e+00	2.930658e+03	8.911114e+05	4.024935e-01	3.447587e+02	1.777758e-05	9.471317e-03	3.597126e-03	-1.939532e+03	6.353691e-01	8.298837e-21	
3.677736e-03	4.256749e-03	1.074646e+01	0.000000e+00	0.000000e+00	1.955730e+06	1.000000e-10	1.319277e+11	8.781230e+05	2.846648e+02	-1.051389e+00	0.000000e+00	2.931306e+03	8.781230e+05	4.278459e-01	3.440956e+02	1.772433e-05	9.658815e-03	3.136778e-03	-1.905380e+03	6.345863e-01	8.145395e-21	
4.103868e-03	4.384258e-03	1.058600e+01	0.000000e+00	0.000000e+00	1.915681e+06	1.000000e-10	1.333392e+11	8.601408e+05	2.830619e+02	-1.206515e+00	0.000000e+00	2.932014e+03	8.601408e+05	4.613888e-01	3.431254e+02	1.764643e-05	9.805779e-03	2.677402e-03	-1.771397e+03	6.329018e-01	7.938839e-21	
4.558743e-03	4.497302e-03	1.045444e+01	0.000000e+00	0.000000e+00	1.883099e+06	1.000000e-10	1.345279e+11	8.455113e+05	2.817492e+02	-1.332718e+00	0.000000e+00	2.932632e+03	8.455113e+05	4.876014e-01	3.423289e+02	1.758248e-05	9.913462e-03	2.218731e-03	-1.656498e+03	6.310573e-01	7.770889e-21	
5.031267e-03	4.591819e-03	1.027879e+01	0.000000e+00	0.000000e+00	1.839179e+06	1.000000e-10	1.361172e+11	8.257915e+05	2.798804e+02	-1.502834e+00	0.000000e+00	2.933242e+03	8.257915e+05	5.217208e-01	3.411917e+02	1.749119e-05	9.934974e-03	1.761585e-03	-1.443574e+03	6.268663e-01	7.551126e-21	
5.515564e-03	4.666957e-03	1.014022e+01	0.000000e+00	0.000000e+00	1.804894e+06	1.000000e-10	1.374115e+11	8.103975e+05	2.784163e+02	-1.635633e+00	0.000000e+00	2.933784e+03	8.103975e+05	5.475704e-01	3.402981e+02	1.741947e-05	9.927049e-03	1.262361e-03	-1.317187e+03	6.226151e-01	7.379157e-21	
6.011193e-03	4.716430e-03	9.979164e+00	0.000000e+00	0.000000e+00	1.764861e+06	1.000000e-10	1.389282e+11	7.924226e+05	2.766347e+02	-1.790695e+00	0.000000e+00	2.934276e+03	7.924226e+05	5.770542e-01	3.392076e+02	1.733196e-05	9.872737e-03	7.617377e-04	-1.133145e+03	6.175070e-01	7.182676e-21	
6.511513e-03	4.743800e-03	9.847013e+00	0.000000e+00	0.000000e+00	1.731955e+06	1.000000e-10	1.401866e+11	7.776477e+05	2.751201e+02	-1.918153e+00	0.000000e+00	2.934593e+03	7.776477e+05	6.008273e-01	3.382777e+02	1.725734e-05	9.753915e-03	3.275579e-04	-1.025463e+03	6.116027e-01	7.023932e-21	
7.003138e-03	4.749742e-03	9.726745e+00	0.000000e+00	0.000000e+00	1.702131e+06	1.000000e-10	1.413538e+11	7.642567e+05	2.737258e+02	-2.033672e+00	0.000000e+00	2.934872e+03	7.642567e+05	6.220782e-01	3.374194e+02	1.718848e-05	9.657446e-03	-4.755250e-05	-9.144776e+02	6.070985e-01	6.880852e-21	
7.481386e-03	4.739025e-03	9.582416e+00	0.000000e+00	0.000000e+00	1.666481e+06	1.000000e-10	1.427817e+11	7.482502e+05	2.720293e+02	-2.171755e+00	0.000000e+00	2.935189e+03	7.482502e+05	6.471776e-01	3.363722e+02	1.710448e-05	9.513311e-03	-4.432049e-04	-7.663299e+02	6.013233e-01	6.710953e-21	
7.958603e-03	4.705229e-03	9.447178e+00	0.000000e+00	0.000000e+00	1.632799e+06	1.000000e-10	1.441179e+11	7.331268e+05	2.703466e+02	-2.302219e+00	0.000000e+00	2.935302e+03	7.331268e+05	6.706489e-01	3.353302e+02	1.702091e-05	9.274051e-03	-8.378163e-04	-6.824643e+02	5.932867e-01	6.554893e-21	
8.449230e-03	4.651590e-03	9.363726e+00	0.000000e+00	0.000000e+00	1.611756e+06	1.000000e-10	1.449311e+11	7.236786e+05	2.692409e+02	-2.383725e+00	0.000000e+00	2.935229e+03	7.236786e+05	6.852161e-01	3.346437e+02	1.696586e-05	9.044248e-03	-1.163947e-03	-7.139418e+02	5.864045e-01	6.460521e-21	
8.954673e-03	4.577040e-03	9.281144e+00	0.000000e+00	0.000000e+00	1.591072e+06	1.000000e-10	1.457512e+11	7.143911e+05	2.681504e+02	-2.463845e+00	0.000000e+00	2.935177e+03	7.143911e+05	6.994773e-01	3.339654e+02	1.691147e-05	8.847133e-03	-1.472566e-03	-7.022189e+02	5.808537e-01	6.367501e-21	
9.465317e-03	4.482466e-03	9.209873e+00	0.000000e+00	0.000000e+00	1.573228e+06	1.000000e-10	1.464639e+11	7.063794e+05	2.671950e+02	-2.532959e+00	0.000000e+00	2.935108e+03	7.063794e+05	7.117410e-01	3.333699e+02	1.686373e-05	8.683743e-03	-1.743126e-03	-6.710322e+02	5.766267e-01	6.287848e-21	
9.974828e-03	4.372260e-03	9.109874e+00	0.000000e+00	0.000000e+00	1.548452e+06	1.000000e-10	1.474907e+11	6.952548e+05	2.658738e+02	-2.628927e+00	0.000000e+00	2.935073e+03	6.952548e+05	7.287232e-01	3.325447e+02	1.679759e-05	8.495332e-03	-2.017925e-03	-5.637755e+02	5.716603e-01	6.176271e-21	
1.047984e-02	4.241483e-03	8.998033e+00	0.000000e+00	0.000000e+00	1.520628e+06	1.000000e-10	1.486401e+11	6.827620e+05	2.643417e+02	-2.736698e+00	0.000000e+00	2.934924e+03	6.827620e+05	7.477480e-01	3.315851e+02	1.672068e-05	8.220709e-03	-2.281606e-03	-4.861592e+02	5.641709e-01	6.053266e-21	
1.098027e-02	4.093205e-03	8.926971e+00	0.000000e+00	0.000000e+00	1.502584e+06	1.000000e-10	1.493459e+11	6.746601e+05	2.632842e+02	-2.806590e+00	0.000000e+00	2.934637e+03	6.746601e+05	7.600699e-01	3.309212e+02	1.666748e-05	7.946729e-03	-2.489797e-03	-5.282595e+02	5.569578e-01	5.977074e-21	
1.147608e-02	3.929350e-03	8.869287e+00	0.000000e+00	0.000000e+00	1.487912e+06	1.000000e-10	1.499186e+11	6.680725e+05	2.624091e+02	-2.863418e+00	0.000000e+00	2.934370e+03	6.680725e+05	7.700842e-01	3.303708e+02	1.662338e-05	7.719164e-03	-2.678523e-03	-5.626995e+02	5.513575e-01	5.915755e-21	
1.196709e-02	3.750783e-03	8.815897e+00	0.000000e+00	0.000000e+00	1.474336e+06	1.000000e-10	1.504504e+11	6.619770e+05	2.615895e+02	-2.916003e+00	0.000000e+00	2.934103e+03	6.619770e+05	7.793496e-01	3.298545e+02	1.658201e-05	7.508603e-03	-2.851548e-03	-5.739872e+02	5.463648e-01	5.859351e-21	
1.245315e-02	3.558286e-03	8.767652e+00	0.000000e+00	0.000000e+00	1.462007e+06	1.000000e-10	1.509269e+11	6.564413e+05	2.608294e+02	-2.963757e+00	0.000000e+00	2.933818e+03	6.564413e+05	7.877652e-01	3.293749e+02	1.654360e-05	7.300336e-03	-3.003816e-03	-5.831326e+02	5.414320e-01	5.808875e-21	
1.293426e-02	3.352830e-03	8.733876e+00	0.000000e+00	0.000000e+00	1.453269e+06	1.000000e-10	1.512519e+11	6.525178e+05	2.602731e+02	-2.997604e+00	0.000000e+00	2.933561e+03	6.525178e+05	7.937318e-01	3.290235e+02	1.651545e-05	7.149740e-03	-3.137394e-03	-5.894721e+02	5.383407e-01	5.774053e-21	
1.341151e-02	3.137747e-03	8.661442e+00	0.000000e+00	0.000000e+00	1.435388e+06	1.000000e-10	1.520241e+11	6.444893e+05	2.592206e+02	-3.066863e+00	0.000000e+00	2.933361e+03	6.444893e+05	8.059482e-01	3.283575e+02	1.646211e-05	6.965897e-03	-3.274044e-03	-5.099827e+02	5.340085e-01	5.697077e-21	
1.388196e-02	2.907400e-03	8.587971e+00	0.000000e+00	0.000000e+00	1.417054e+06	1.000000e-10	1.527937e+11	6.362574e+05	2.580990e+02	-3.137876e+00	0.000000e+00	2.933034e+03	6.362574e+05	8.184886e-01	3.276464e+02	1.640516e-05	6.714910e-03	-3.388402e-03	-4.767168e+02	5.274641e-01	5.620290e-21	
1.434701e-02	2.665685e-03	8.539771e+00	0.000000e+00	0.000000e+00	1.404667e+06	1.000000e-10	1.532685e+11	6.306953e+05	2.572867e+02	-3.185858e+00	0.000000e+00	2.932634e+03	6.306953e+05	8.269731e-01	3.271304e+02	1.636385e-05	6.479483e-03	-3.461946e-03	-5.134790e+02	5.211376e-01	5.571429e-21	
1.480670e-02	2.413316e-03	8.505498e+00	0.000000e+00	0.000000e+00	1.395806e+06	1.000000e-10	1.536014e+11	6.267167e+05	2.566939e+02	-3.220180e+00	0.000000e+00	2.932314e+03	6.267167e+05	8.330487e-01	3.267533e+02	1.633366e-05	6.294993e-03	-3.543565e-03	-5.497200e+02	5.166892e-01	5.537036e-21	
1.526118e-02	2.151084e-03	8.474455e+00	0.000000e+00	0.000000e+00	1.387783e+06	1.000000e-10	1.539034e+11	6.231146e+05	2.561534e+02	-3.251255e+00	0.000000e+00	2.932016e+03	6.231146e+05	8.385547e-01	3.264091e+02	1.630611e-05	6.130613e-03	-3.621760e-03	-5.662615e+02	5.129087e-01	5.505995e-21	
1.571044e-02	1.879417e-03	8.445603e+00	0.000000e+00	0.000000e+00	1.380341e+06	1.000000e-10	1.541857e+11	6.197730e+05	2.556501e+02	-3.280081e+00	0.000000e+00	2.931737e+03	6.197730e+05	8.436674e-01	3.260883e+02	1.628043e-05	5.982298e-03	-3.697332e-03	-5.799793e+02	5.096689e-01	5.477201e-21	
1.615460e-02	1.598912e-03	8.408278e+00	0.000000e+00	0.000000e+00	1.370988e+06	1.000000e-10	1.545758e+11	6.155738e+05	2.550451e+02	-3.316306e+00	0.000000e+00	2.931494e+03	6.155738e+05	8.500995e-01	3.257022e+02	1.624953e-05	5.829805e-03	-3.758713e-03	-5.781113e+02	5.060122e-01	5.439230e-21	
1.659367e-02	1.309963e-03	8.388441e+00	0.000000e+00	0.000000e+00	1.365705e+06	1.000000e-10	1.547537e+11	6.132016e+05	2.546631e+02	-3.336770e+00	0.000000e+00	2.931214e+03	6.132016e+05	8.537370e-01	3.254582e+02	1.623000e-05	5.680566e-03	-3.811936e-03	-6.122213e+02	5.025301e-01	5.420143e-21	
1.702772e-02	1.013007e-03	8.357710e+00	0.000000e+00	0.000000e+00	1.357852e+06	1.000000e-10	1.550614e+11	6.096757e+05	2.541297e+02	-3.367187e+00	0.000000e+00	2.930927e+03	6.096757e+05	8.591490e-01	3.251172e+02	1.620271e-05	5.520076e-03	-3.846607e-03	-6.396003e+02	4.982898e-01	5.389572e-21	
1.745679e-02	7.085044e-04	8.351121e+00	0.000000e+00	0.000000e+00	1.355732e+06	1.000000e-10	1.550857e+11	6.087239e+05	2.539332e+02	-3.375398e+00	0.000000e+00	2.930659e+03	6.087239e+05	8.606111e-01	3.249915e+02	1.619265e-05	5.392002e-03	-3.893249e-03	-6.819842e+02	4.955249e-01	5.384460e-21	
1.788098e-02	3.969121e-04	8.328861e+00	0.000000e+00	0.000000e+00	1.349980e+06	1.000000e-10	1.553024e+11	6.061408e+05	2.535315e+02	-3.397681e+00	0.000000e+00	2.930413e+03	6.061408e+05	8.645816e-01	3.247343e+02	1.617207e-05	5.274375e-03	-3.938927e-03	-6.730486e+02	4.929625e-01	5.362613e-21	
1.830029e-02	7.857717e-05	8.301707e+00	0.000000e+00	0.000000e+00	1.343211e+06	1.000000e-10	1.555901e+11	6.031016e+05	2.530854e+02	-3.423899e+00	0.000000e+00	2.930224e+03	6.031016e+05	8.692583e-01	3.244485e+02	1.614920e-05	5.158145e-03	-3.977886e-03	-6.731920e+02	4.902642e-01	5.335248e-21	
1.871479e-02	-2.461064e-04	8.286156e+00	0.000000e+00	0.000000e+00	1.339141e+06	1.000000e-10	1.557356e+11	6.012744e+05	2.527922e+02	-3.439662e+00	0.000000e+00	2.930021e+03	6.012744e+05	8.720727e-01	3.242605e+02	1.613416e-05	5.042791e-03	-4.009387e-03	-6.955115e+02	4.875669e-01	5.320264e-21	
1.912457e-02	-5.767807e-04	8.272423e+00	0.000000e+00	0.000000e+00	1.335433e+06	1.000000e-10	1.558531e+11	5.996094e+05	2.525106e+02	-3.454026e+00	0.000000e+00	2.929785e+03	5.996094e+05	8.746392e-01	3.240798e+02	1.611971e-05	4.924905e-03	-4.031320e-03	-7.192613e+02	4.846395e-01	5.307428e-21	
1.952968e-02	-9.131413e-04	8.260355e+00	0.000000e+00	0.000000e+00	1.332177e+06	1.000000e-10	1.559576e+11	5.981477e+05	2.522630e+02	-3.466635e+00	0.000000e+00	2.929577e+03	5.981477e+05	8.768938e-01	3.239209e+02	1.610700e-05	4.818328e-03	-4.055391e-03	-7.579787e+02	4.821242e-01	5.296137e-21	
1.993022e-02	-1.254868e-03	8.249562e+00	0.000000e+00	0.000000e+00	1.329316e+06	1.000000e-10	1.560548e+11	5.968629e+05	2.520505e+02	-3.477719e+00	0.000000e+00	2.929414e+03	5.968629e+05	8.788767e-01	3.237845e+02	1.609608e-05	4.730828e-03	-4.089073e-03	-7.807353e+02	4.804212e-01	5.285912e-21	
2.032627e-02	-1.601673e-03	8.221475e+00	0.000000e+00	0.000000e+00	1.322391e+06	1.000000e-10	1.563602e+11	5.937535e+05	2.515941e+02	-3.504542e+00	0.000000e+00	2.929234e+03	5.937535e+05	8.836801e-01	3.234912e+02	1.607262e-05	4.634007e-03	-4.108726e-03	-7.635349e+02	4.779965e-01	5.257633e-21	
2.071791e-02	-1.953271e-03	8.193649e+00	0.000000e+00	0.000000e+00	1.315676e+06	1.000000e-10	1.566757e+11	5.907386e+05	2.511666e+02	-3.530550e+00	0.000000e+00	2.929120e+03	5.907386e+05	8.883441e-01	3.232162e+02	1.605063e-05	4.540851e-03	-4.125865e-03	-7.783121e+02	4.756027e-01	5.229280e-21	
2.110520e-02	-2.309414e-03	8.165431e+00	0.000000e+00	0.000000e+00	1.308768e+06	1.000000e-10	1.569866e+11	5.876368e+05	2.507113e+02	-3.557308e+00	0.000000e+00	2.928950e+03	5.876368e+05	8.931494e-01	3.229231e+02	1.602718e-05	4.433660e-03	-4.123991e-03	-7.645853e+02	4.723603e-01	5.200940e-21	
2.148823e-02	-2.669783e-03	8.142228e+00	0.000000e+00	0.000000e+00	1.303092e+06	1.000000e-10	1.572433e+11	5.850882e+05	2.503353e+02	-3.579294e+00	0.000000e+00	2.928807e+03	5.850882e+05	8.971033e-01	3.226809e+02	1.600781e-05	4.339633e-03	-4.128660e-03	-7.826913e+02	4.697066e-01	5.177692e-21	
2.186682e-02	-3.034013e-03	8.113695e+00	0.000000e+00	0.000000e+00	1.296210e+06	1.000000e-10	1.575692e+11	5.819984e+05	2.498890e+02	-3.605949e+00	0.000000e+00	2.928674e+03	5.819984e+05	9.019037e-01	3.223931e+02	1.598480e-05	4.250665e-03	-4.132764e-03	-7.918650e+02	4.671498e-01	5.148875e-21	
2.224100e-02	-3.401682e-03	8.081942e+00	0.000000e+00	0.000000e+00	1.288605e+06	1.000000e-10	1.579377e+11	5.785835e+05	2.493988e+02	-3.635408e+00	0.000000e+00	2.928544e+03	5.785835e+05	9.072182e-01	3.220767e+02	1.595950e-05	4.161288e-03	-4.131225e-03	-7.988043e+02	4.644135e-01	5.116758e-21	
2.261191e-02	-3.773717e-03	8.047610e+00	0.000000e+00	0.000000e+00	1.280426e+06	1.000000e-10	1.583414e+11	5.749112e+05	2.488730e+02	-3.667088e+00	0.000000e+00	2.928417e+03	5.749112e+05	9.129446e-01	3.217371e+02	1.593234e-05	4.071773e-03	-4.125267e-03	-8.028512e+02	4.615394e-01	5.082035e-21	
2.298045e-02	-4.150839e-03	8.011644e+00	0.000000e+00	0.000000e+00	1.271897e+06	1.000000e-10	1.587691e+11	5.710818e+05	2.483251e+02	-3.700123e+00	0.000000e+00	2.928294e+03	5.710818e+05	9.189285e-01	3.213827e+02	1.590401e-05	3.984247e-03	-4.116424e-03	-8.014638e+02	4.586330e-01	5.045691e-21	
2.334606e-02	-4.532224e-03	7.973733e+00	0.000000e+00	0.000000e+00	1.262950e+06	1.000000e-10	1.592255e+11	5.670647e+05	2.477507e+02	-3.734777e+00	0.000000e+00	2.928175e+03	5.670647e+05	9.252204e-01	3.210108e+02	1.587428e-05	3.898963e-03	-4.105209e-03	-7.960984e+02	4.557103e-01	5.007421e-21	
2.370824e-02	-4.917132e-03	7.933747e+00	0.000000e+00	0.000000e+00	1.253556e+06	1.000000e-10	1.597125e+11	5.628465e+05	2.471471e+02	-3.771166e+00	0.000000e+00	2.928059e+03	5.628465e+05	9.318440e-01	3.206195e+02	1.584300e-05	3.814818e-03	-4.091039e-03	-7.925549e+02	4.527206e-01	4.967117e-21	
2.406686e-02	-5.305217e-03	7.892575e+00	0.000000e+00	0.000000e+00	1.243920e+06	1.000000e-10	1.602193e+11	5.585200e+05	2.465267e+02	-3.808489e+00	0.000000e+00	2.927945e+03	5.585200e+05	9.386562e-01	3.202169e+02	1.581082e-05	3.731673e-03	-4.073939e-03	-7.921611e+02	4.496646e-01	4.925710e-21	
2.442194e-02	-5.696285e-03	7.851438e+00	0.000000e+00	0.000000e+00	1.234324e+06	1.000000e-10	1.607307e+11	5.542116e+05	2.459067e+02	-3.845656e+00	0.000000e+00	2.927835e+03	5.542116e+05	9.454594e-01	3.198139e+02	1.577862e-05	3.650880e-03	-4.055288e-03	-7.958619e+02	4.466271e-01	4.884448e-21	
2.477352e-02	-6.090154e-03	7.811605e+00	0.000000e+00	0.000000e+00	1.225061e+06	1.000000e-10	1.612301e+11	5.500522e+05	2.453057e+02	-3.881537e+00	0.000000e+00	2.927731e+03	5.500522e+05	9.520466e-01	3.194229e+02	1.574737e-05	3.574757e-03	-4.037247e-03	-7.951721e+02	4.437448e-01	4.844615e-21	
2.512172e-02	-6.486607e-03	7.772090e+00	0.000000e+00	0.000000e+00	1.215899e+06	1.000000e-10	1.617299e+11	5.459385e+05	2.447090e+02	-3.917024e+00	0.000000e+00	2.927630e+03	5.459385e+05	9.585807e-01	3.190341e+02	1.571631e-05	3.501551e-03	-4.019257e-03	-7.907641e+02	4.409460e-01	4.805213e-21	
2.546638e-02	-6.885447e-03	7.733883e+00	0.000000e+00	0.000000e+00	1.207061e+06	1.000000e-10	1.622167e+11	5.419704e+05	2.441305e+02	-3.951256e+00	0.000000e+00	2.927531e+03	5.419704e+05	9.649025e-01	3.186568e+02	1.568617e-05	3.432384e-03	-4.002586e-03	-7.873898e+02	4.383086e-01	4.767239e-21	
2.580735e-02	-7.286138e-03	7.697338e+00	0.000000e+00	0.000000e+00	1.198637e+06	1.000000e-10	1.626865e+11	5.381879e+05	2.435776e+02	-3.983887e+00	0.000000e+00	2.927441e+03	5.381879e+05	9.709465e-01	3.182958e+02	1.565733e-05	3.369045e-03	-3.989231e-03	-7.817483e+02	4.359442e-01	4.731005e-21	
2.614523e-02	-7.689269e-03	7.659411e+00	0.000000e+00	0.000000e+00	1.189925e+06	1.000000e-10	1.631788e+11	5.342764e+05	2.430047e+02	-4.017629e+00	0.000000e+00	2.927354e+03	5.342764e+05	9.772154e-01	3.179212e+02	1.562741e-05	3.308900e-03	-3.976896e-03	-7.726846e+02	4.336902e-01	4.693483e-21	
2.648131e-02	-8.096156e-03	7.618404e+00	0.000000e+00	0.000000e+00	1.180525e+06	1.000000e-10	1.637150e+11	5.300556e+05	2.423826e+02	-4.054040e+00	0.000000e+00	2.927256e+03	5.300556e+05	9.840023e-01	3.175140e+02	1.559489e-05	3.246429e-03	-3.958557e-03	-7.691288e+02	4.311648e-01	4.653062e-21	
2.681557e-02	-8.506647e-03	7.573945e+00	0.000000e+00	0.000000e+00	1.170367e+06	1.000000e-10	1.643021e+11	5.254947e+05	2.417075e+02	-4.093386e+00	0.000000e+00	2.927153e+03	5.254947e+05	9.913631e-01	3.170716e+02	1.555956e-05	3.180269e-03	-3.933745e-03	-7.687092e+02	4.283057e-01	4.609372e-21	
2.714734e-02	-8.919978e-03	7.526592e+00	0.000000e+00	0.000000e+00	1.159603e+06	1.000000e-10	1.649362e+11	5.206615e+05	2.409911e+02	-4.135080e+00	0.000000e+00	2.927056e+03	5.206615e+05	9.991950e-01	3.166013e+02	1.552202e-05	3.115234e-03	-3.907950e-03	-7.550459e+02	4.254163e-01	4.562940e-21	
2.747644e-02	-9.335689e-03	7.473956e+00	0.000000e+00	0.000000e+00	1.147712e+06	1.000000e-10	1.656528e+11	5.153228e+05	2.401999e+02	-4.181136e+00	0.000000e+00	2.926968e+03	5.153228e+05	1.007885e+00	3.160811e+02	1.548050e-05	3.052084e-03	-3.882973e-03	-7.272011e+02	4.225563e-01	4.511424e-21	
2.780271e-02	-9.753764e-03	7.407644e+00	0.000000e+00	0.000000e+00	1.132799e+06	1.000000e-10	1.665687e+11	5.086269e+05	2.392011e+02	-4.238899e+00	0.000000e+00	2.926862e+03	5.086269e+05	1.018846e+00	3.154233e+02	1.542799e-05	2.963643e-03	-3.835146e-03	-6.939244e+02	4.181553e-01	4.446812e-21	
2.812503e-02	-1.017500e-02	7.357976e+00	0.000000e+00	0.000000e+00	1.121573e+06	1.000000e-10	1.672508e+11	5.035862e+05	2.384292e+02	-4.282382e+00	0.000000e+00	2.926727e+03	5.035862e+05	1.027144e+00	3.149140e+02	1.538735e-05	2.884939e-03	-3.785891e-03	-7.134604e+02	4.140852e-01	4.398980e-21	
2.844571e-02	-1.059758e-02	7.332254e+00	0.000000e+00	0.000000e+00	1.115723e+06	1.000000e-10	1.676013e+11	5.009597e+05	2.380177e+02	-4.305040e+00	0.000000e+00	2.926628e+03	5.009597e+05	1.031484e+00	3.146421e+02	1.536566e-05	2.841397e-03	-3.760427e-03	-7.540071e+02	4.119127e-01	4.374442e-21	
2.876467e-02	-1.102153e-02	7.275402e+00	0.000000e+00	0.000000e+00	1.103054e+06	1.000000e-10	1.684104e+11	4.952711e+05	2.371537e+02	-4.354114e+00	0.000000e+00	2.926537e+03	4.952711e+05	1.040923e+00	3.140705e+02	1.532006e-05	2.786458e-03	-3.728929e-03	-7.314562e+02	4.089858e-01	4.319679e-21	
2.908090e-02	-1.144761e-02	7.223322e+00	0.000000e+00	0.000000e+00	1.091485e+06	1.000000e-10	1.691607e+11	4.900767e+05	2.363584e+02	-4.398924e+00	0.000000e+00	2.926452e+03	4.900767e+05	1.049592e+00	3.135435e+02	1.527802e-05	2.726497e-03	-3.694493e-03	-7.469890e+02	4.058486e-01	4.269752e-21	
2.939486e-02	-1.187545e-02	7.184130e+00	0.000000e+00	0.000000e+00	1.082846e+06	1.000000e-10	1.697350e+11	4.861980e+05	2.357670e+02	-4.432384e+00	0.000000e+00	2.926412e+03	4.861980e+05	1.056097e+00	3.131509e+02	1.524672e-05	2.688147e-03	-3.684730e-03	-7.770688e+02	4.042252e-01	4.232221e-21	
2.970646e-02	-1.230508e-02	7.125231e+00	0.000000e+00	0.000000e+00	1.069894e+06	1.000000e-10	1.706036e+11	4.803824e+05	2.348724e+02	-4.482554e+00	0.000000e+00	2.926345e+03	4.803824e+05	1.065902e+00	3.125563e+02	1.519930e-05	2.639652e-03	-3.660292e-03	-6.950267e+02	4.016787e-01	4.176133e-21	
3.001576e-02	-1.273643e-02	7.063383e+00	0.000000e+00	0.000000e+00	1.056271e+06	1.000000e-10	1.715221e+11	4.742656e+05	2.339121e+02	-4.535321e+00	0.000000e+00	2.926228e+03	4.742656e+05	1.076286e+00	3.119167e+02	1.514831e-05	2.575488e-03	-3.611926e-03	-6.744934e+02	3.978532e-01	4.117731e-21	
3.032281e-02	-1.316947e-02	7.001312e+00	0.000000e+00	0.000000e+00	1.042761e+06	1.000000e-10	1.724692e+11	4.681997e+05	2.329677e+02	-4.587649e+00	0.000000e+00	2.926175e+03	4.681997e+05	1.086657e+00	3.112863e+02	1.509807e-05	2.522323e-03	-3.576635e-03	-6.962037e+02	3.947432e-01	4.059139e-21	
3.062768e-02	-1.360413e-02	6.944577e+00	0.000000e+00	0.000000e+00	1.030339e+06	1.000000e-10	1.733311e+11	4.626224e+05	2.320731e+02	-4.635763e+00	0.000000e+00	2.926051e+03	4.626224e+05	1.096261e+00	3.106881e+02	1.505041e-05	2.474853e-03	-3.547312e-03	-6.947146e+02	3.920690e-01	4.006240e-21	
3.093042e-02	-1.404037e-02	6.862963e+00	0.000000e+00	0.000000e+00	1.012782e+06	1.000000e-10	1.746158e+11	4.547391e+05	2.308313e+02	-4.703769e+00	0.000000e+00	2.926014e+03	4.547391e+05	1.109951e+00	3.098557e+02	1.498410e-05	2.419534e-03	-3.504941e-03	-6.684203e+02	3.884689e-01	3.930007e-21	
3.123103e-02	-1.447815e-02	6.804479e+00	0.000000e+00	0.000000e+00	1.000059e+06	1.000000e-10	1.755260e+11	4.490264e+05	2.298905e+02	-4.753050e+00	0.000000e+00	2.925860e+03	4.490264e+05	1.119961e+00	3.092237e+02	1.493376e-05	2.355808e-03	-3.448297e-03	-6.987429e+02	3.843242e-01	3.876321e-21	
3.152959e-02	-1.491740e-02	6.721436e+00	0.000000e+00	0.000000e+00	9.823740e+05	1.000000e-10	1.768784e+11	4.410859e+05	2.286152e+02	-4.821550e+00	0.000000e+00	2.925828e+03	4.410859e+05	1.134002e+00	3.083648e+02	1.486538e-05	2.316473e-03	-3.425318e-03	-6.621136e+02	3.818353e-01	3.799724e-21	
3.182611e-02	-1.535807e-02	6.626505e+00	0.000000e+00	0.000000e+00	9.621320e+05	1.000000e-10	1.784351e+11	4.319973e+05	2.271122e+02	-4.899954e+00	0.000000e+00	2.925694e+03	4.319973e+05	1.150267e+00	3.073494e+02	1.478457e-05	2.236319e-03	-3.339891e-03	-6.294695e+02	3.758341e-01	3.713367e-21	
3.212063e-02	-1.580011e-02	6.561947e+00	0.000000e+00	0.000000e+00	9.483839e+05	1.000000e-10	1.795076e+11	4.258244e+05	2.260694e+02	-4.953206e+00	0.000000e+00	2.925563e+03	4.258244e+05	1.161438e+00	3.066430e+02	1.472837e-05	2.181790e-03	-3.293106e-03	-6.312756e+02	3.721819e-01	3.655236e-21	