 VARIABLES = "X",  "Y"
 ZONE N=       16847 , E=       22757 , F=FEPOINT, ET=QUADRILATERAL
        0.0498425117       -0.0505091944
       -0.0000434740       -0.0001514516
       -0.0000000000       -0.0290328500
       -0.0124497600       -0.0290328500
        0.0497990500       -0.0799362800
        0.0622488200       -0.0799362800
        0.0622488200       -0.0218705800
        0.0497990500       -0.0218705800
        0.0000000000        0.0290328500
       -0.0124497600        0.0290328500
        0.0498383246       -0.0503833807
        0.0498255954       -0.0502633080
        0.0498061765       -0.0501468181
        0.0497798657       -0.0500280458
        0.0497458701       -0.0499040353
        0.0497039430       -0.0497764692
        0.0496524787       -0.0496444682
        0.0495928242       -0.0495035890
        0.0495270939       -0.0493494904
        0.0494515896       -0.0491725121
        0.0493540907       -0.0489446003
        0.0492254663       -0.0486444002
        0.0490472587       -0.0482298634
        0.0488409011       -0.0477516418
        0.0486282444       -0.0472608462
        0.0484159421       -0.0467729399
        0.0482057944       -0.0462922525
        0.0479956446       -0.0458134626
        0.0477846001       -0.0453347555
        0.0475726176       -0.0448560957
        0.0473598456       -0.0443776723
        0.0471462730       -0.0438996224
        0.0469318893       -0.0434219622
        0.0467167612       -0.0429446626
        0.0465008008       -0.0424678664
        0.0462841360       -0.0419917380
        0.0460671531       -0.0415166604
        0.0458501821       -0.0410434113
        0.0456326945       -0.0405718963
        0.0454143062       -0.0401006866
        0.0451948660       -0.0396294978
        0.0449744890       -0.0391586512
        0.0447531946       -0.0386882465
        0.0445309794       -0.0382182739
        0.0443079378       -0.0377487173
        0.0440839780       -0.0372797056
        0.0438591791       -0.0368112357
        0.0436334468       -0.0363432718
        0.0434066565       -0.0358756218
        0.0431789086       -0.0354075970
        0.0429496846       -0.0349386782
        0.0427184045       -0.0344689343
        0.0424854257       -0.0339985115
        0.0422509051       -0.0335276701
        0.0420149790       -0.0330567092
        0.0417778233       -0.0325859854
        0.0415395725       -0.0321157953
        0.0413003706       -0.0316464408
        0.0410604456       -0.0311783701
        0.0408196390       -0.0307113655
        0.0405760582       -0.0302416808
        0.0403304439       -0.0297711788
        0.0400841246       -0.0293018676
        0.0398372710       -0.0288329728
        0.0395886727       -0.0283647257
        0.0393384923       -0.0278972182
        0.0390870335       -0.0274304291
        0.0388340932       -0.0269641174
        0.0385796796       -0.0264981652
        0.0383238195       -0.0260327681
        0.0380665946       -0.0255680203
        0.0378080172       -0.0251039973
        0.0375480276       -0.0246408024
        0.0372867055       -0.0241783983
        0.0370238418       -0.0237169087
        0.0367598905       -0.0232561065
        0.0364951182       -0.0227957474
        0.0362282237       -0.0223365640
        0.0359595055       -0.0218784665
        0.0356892049       -0.0214213049
        0.0354172164       -0.0209651466
        0.0351436578       -0.0205099518
        0.0348684833       -0.0200557645
        0.0345916636       -0.0196026037
        0.0343131710       -0.0191504851
        0.0340329421       -0.0186994712
        0.0337509787       -0.0182495845
        0.0334673133       -0.0178007968
        0.0331817541       -0.0173532573
        0.0328944395       -0.0169069961
        0.0326063946       -0.0164612686
        0.0323160545       -0.0160169652
        0.0320229263       -0.0155745334
        0.0317277752       -0.0151335193
        0.0314306081       -0.0146938909
        0.0311313995       -0.0142556930
        0.0308301020       -0.0138189943
        0.0305266789       -0.0133838448
        0.0302211089       -0.0129502821
        0.0299133261       -0.0125183728
        0.0296032768       -0.0120881507
        0.0292908871       -0.0116596781
        0.0289761967       -0.0112329618
        0.0286590790       -0.0108081159
        0.0283393761       -0.0103853762
        0.0280185910       -0.0099635133
        0.0276947968       -0.0095438900
        0.0273673741       -0.0091272259
        0.0270373822       -0.0087128030
        0.0267047070       -0.0083009312
        0.0263698068       -0.0078921779
        0.0260333261       -0.0074873286
        0.0256945066       -0.0070857018
        0.0253521562       -0.0066860067
        0.0250061934       -0.0062883956
        0.0246567631       -0.0058932809
        0.0243039301       -0.0055008085
        0.0239475609       -0.0051112144
        0.0235876382       -0.0047246565
        0.0232241767       -0.0043413828
        0.0228574416       -0.0039618692
        0.0224880792       -0.0035870079
        0.0221161318       -0.0032171122
        0.0217403585       -0.0028510543
        0.0213600404       -0.0024885082
        0.0209753890       -0.0021299706
        0.0205864428       -0.0017757801
        0.0201931095       -0.0014262163
        0.0197953268       -0.0010815371
        0.0193930070       -0.0007420336
        0.0189860727       -0.0004079908
        0.0185744248       -0.0000797554
        0.0181580303        0.0002424070
        0.0177367502        0.0005580573
        0.0173105847        0.0008668697
        0.0168794786        0.0011684412
        0.0164433568        0.0014623125
        0.0160021560        0.0017480176
        0.0155558488        0.0020251602
        0.0151043659        0.0022932787
        0.0146476183        0.0025517858
        0.0141856085        0.0028002671
        0.0137180813        0.0030378282
        0.0132444940        0.0032625126
        0.0127652885        0.0034738749
        0.0122819500        0.0036746703
        0.0117934690        0.0038621115
        0.0113000105        0.0040352675
        0.0108017914        0.0041935080
        0.0102988381        0.0043359404
        0.0097908316        0.0044579075
        0.0092799309        0.0045632955
        0.0087691852        0.0046506061
        0.0082673276        0.0047174008
        0.0077819465        0.0047635866
        0.0073050210        0.0047891003
        0.0068215927        0.0047932104
        0.0063241603        0.0047796737
        0.0058227153        0.0047439688
        0.0053293615        0.0046858215
        0.0048479818        0.0046018481
        0.0043796356        0.0045002497
        0.0039322816        0.0043808335
        0.0035165127        0.0042484969
        0.0031333903        0.0041060819
        0.0027704110        0.0039497264
        0.0024252584        0.0037849283
        0.0021323517        0.0036294499
        0.0019219255        0.0035078861
        0.0017589354        0.0034076014
        0.0016263657        0.0033216265
        0.0015079772        0.0032409882
        0.0014003881        0.0031613342
        0.0013025494        0.0030808506
        0.0012110320        0.0029971764
        0.0011221575        0.0029069642
        0.0010324735        0.0028063190
        0.0009395751        0.0026912975
        0.0008416532        0.0025575488
        0.0007369933        0.0024000437
        0.0006237592        0.0022122563
        0.0005012283        0.0019888916
        0.0003756575        0.0017390997
        0.0002670829        0.0014957107
        0.0001842996        0.0012861951
        0.0001197606        0.0010994547
        0.0000693512        0.0009282976
        0.0000307615        0.0007675309
        0.0000014494        0.0006099807
       -0.0000195029        0.0004476615
       -0.0000335290        0.0002726896
       -0.0000413224        0.0000765928
       -0.0000384639       -0.0004129481
       -0.0000271315       -0.0007040449
       -0.0000116985       -0.0009800110
        0.0000115035       -0.0012207904
        0.0000423282       -0.0014304800
        0.0000767903       -0.0016085257
        0.0001123718       -0.0017575713
        0.0001488260       -0.0018868358
        0.0001876710       -0.0020030849
        0.0002298806       -0.0021105630
        0.0002767309       -0.0022132275
        0.0003301189       -0.0023148487
        0.0003919715       -0.0024186157
        0.0004624105       -0.0025264286
        0.0005403680       -0.0026399518
        0.0006299150       -0.0027660096
        0.0007393966       -0.0029149458
        0.0008759245       -0.0030938862
        0.0010742579       -0.0033418536
        0.0013605645       -0.0036820627
        0.0017011344       -0.0040661003
        0.0020592321       -0.0044499500
        0.0024260778       -0.0048253898
        0.0027989833       -0.0051936725
        0.0031769760       -0.0055558078
        0.0035601186       -0.0059115406
        0.0039469578       -0.0062622203
        0.0043368712       -0.0066086061
        0.0047298140       -0.0069507541
        0.0051256901       -0.0072885395
        0.0055230362       -0.0076236714
        0.0059222620       -0.0079557889
        0.0063233082       -0.0082850405
        0.0067259650       -0.0086120203
        0.0071298460       -0.0089375501
        0.0075350981       -0.0092616032
        0.0079416110       -0.0095842748
        0.0083492566       -0.0099056162
        0.0087574701       -0.0102263127
        0.0091663719       -0.0105462521
        0.0095758653       -0.0108655883
        0.0099858602       -0.0111845168
        0.0103962648       -0.0115031594
        0.0108069728       -0.0118215337
        0.0112177034       -0.0121399411
        0.0116285046       -0.0124583679
        0.0120392758       -0.0127769931
        0.0124499995       -0.0130957982
        0.0128604795       -0.0134149220
        0.0132706599       -0.0137343861
        0.0136805102       -0.0140542497
        0.0140899090       -0.0143747024
        0.0144988615       -0.0146956617
        0.0149071357       -0.0150171540
        0.0153144183       -0.0153390501
        0.0157210307       -0.0156616399
        0.0161279056       -0.0159857458
        0.0165347758       -0.0163112403
        0.0169402867       -0.0166371923
        0.0173444329       -0.0169635120
        0.0177481422       -0.0172911081
        0.0181516737       -0.0176202321
        0.0185547344       -0.0179507308
        0.0189572343       -0.0182825031
        0.0193590898       -0.0186156165
        0.0197602977       -0.0189501018
        0.0201608248       -0.0192859925
        0.0205606134       -0.0196232913
        0.0209596272       -0.0199619593
        0.0213578151       -0.0203019920
        0.0217551027       -0.0206433582
        0.0221512037       -0.0209858689
        0.0225455201       -0.0213289704
        0.0229376867       -0.0216724386
        0.0233287445       -0.0220170781
        0.0237194434       -0.0223636116
        0.0241094823       -0.0227118727
        0.0244987150       -0.0230616804
        0.0248870910       -0.0234129920
        0.0252745768       -0.0237658328
        0.0256611861       -0.0241201760
        0.0260468264       -0.0244760692
        0.0264318216       -0.0248329793
        0.0268157989       -0.0251913492
        0.0271986144       -0.0255519992
        0.0275781390       -0.0259118319
        0.0279554976       -0.0262720403
        0.0283322853       -0.0266340960
        0.0287084769       -0.0269979650
        0.0290838452       -0.0273635077
        0.0294583509       -0.0277305608
        0.0298318875       -0.0280991387
        0.0302044573       -0.0284692009
        0.0305760234       -0.0288407754
        0.0309467729       -0.0292136052
        0.0313167669       -0.0295873461
        0.0316848694       -0.0299629383
        0.0320516529       -0.0303397173
        0.0324170877       -0.0307175246
        0.0327810793       -0.0310963488
        0.0331436458       -0.0314760961
        0.0335047317       -0.0318567708
        0.0338642732       -0.0322382017
        0.0342220086       -0.0326200869
        0.0345784854       -0.0330029870
        0.0349351645       -0.0333876450
        0.0352910738       -0.0337747587
        0.0356458220       -0.0341634305
        0.0359992393       -0.0345531361
        0.0363512945       -0.0349437051
        0.0367019468       -0.0353351133
        0.0370511433       -0.0357273568
        0.0373988738       -0.0361203172
        0.0377449508       -0.0365137468
        0.0380892621       -0.0369076507
        0.0384330408       -0.0373030181
        0.0387770981       -0.0377003335
        0.0391199244       -0.0380996947
        0.0394615526       -0.0385001443
        0.0398018454       -0.0389014209
        0.0401407939       -0.0393034341
        0.0404783669       -0.0397061370
        0.0408145026       -0.0401094835
        0.0411490926       -0.0405132913
        0.0414818465       -0.0409170455
        0.0418127398       -0.0413201621
        0.0421422917       -0.0417246931
        0.0424716262       -0.0421313181
        0.0428004285       -0.0425396326
        0.0431284767       -0.0429492836
        0.0434556406       -0.0433601908
        0.0437819955       -0.0437722229
        0.0441074422       -0.0441854078
        0.0444320008       -0.0445996855
        0.0447557247       -0.0450149079
        0.0450785155       -0.0454309864
        0.0453999302       -0.0458481092
        0.0457202489       -0.0462658871
        0.0460392988       -0.0466842851
        0.0463570319       -0.0471032774
        0.0466735816       -0.0475227115
        0.0469887751       -0.0479426509
        0.0473024997       -0.0483627523
        0.0476134769       -0.0487812948
        0.0479095108       -0.0491817369
        0.0481510310       -0.0495097979
        0.0483229840       -0.0497441512
        0.0484533197       -0.0499222069
        0.0485557806       -0.0500625884
        0.0486474301       -0.0501871344
        0.0487341940       -0.0502991146
        0.0488221297       -0.0504017584
        0.0489121009       -0.0504959264
        0.0490026568       -0.0505818166
        0.0490930327       -0.0506593443
        0.0491828616       -0.0507284636
        0.0492744123       -0.0507902924
        0.0493716722       -0.0508448422
        0.0494786617       -0.0508879383
        0.0495997845       -0.0509051966
        0.0497232078       -0.0508637231
        0.0497997270       -0.0507564902
        0.0498320306       -0.0506353907
       -0.0016943974       -0.0290328500
       -0.0034192944       -0.0290328500
       -0.0051523753       -0.0290328500
       -0.0069213506       -0.0290328500
       -0.0087393715       -0.0290328500
       -0.0105869783       -0.0290328500
        0.0490221186       -0.0784877710
        0.0482494402       -0.0770676941
        0.0474727765       -0.0756609235
        0.0466829414       -0.0742514971
        0.0458707894       -0.0728245819
        0.0450608756       -0.0714241514
        0.0442525295       -0.0700488794
        0.0434150427       -0.0686477236
        0.0425507768       -0.0672270461
        0.0416973388       -0.0658493807
        0.0408121725       -0.0644469769
        0.0398972631       -0.0630258165
        0.0389875805       -0.0616413751
        0.0380920305       -0.0603062751
        0.0371793524       -0.0589740508
        0.0362341309       -0.0576245333
        0.0352627352       -0.0562696499
        0.0342678656       -0.0549156438
        0.0332601704       -0.0535788182
        0.0322572558       -0.0522829544
        0.0312355019       -0.0509982199
        0.0301886463       -0.0497190884
        0.0291066351       -0.0484365578
        0.0279831989       -0.0471474681
        0.0268265389       -0.0458655482
        0.0256386357       -0.0445968613
        0.0243898038       -0.0433153957
        0.0231118873       -0.0420596254
        0.0218139587       -0.0408417220
        0.0204993314       -0.0396673039
        0.0191667748       -0.0385376632
        0.0177879344       -0.0374332776
        0.0163625645       -0.0363605962
        0.0149140154       -0.0353420773
        0.0134359891       -0.0343767964
        0.0119050371       -0.0334552918
        0.0103209366       -0.0325851808
        0.0086833692       -0.0317750582
        0.0070225598       -0.0310492948
        0.0053229140       -0.0304104380
        0.0035659576       -0.0298630684
        0.0017840119       -0.0294099045
        0.0603545864       -0.0799362800
        0.0584848140       -0.0799362800
        0.0566578013       -0.0799362800
        0.0548748411       -0.0799362800
        0.0531297940       -0.0799362800
        0.0514300277       -0.0799362800
        0.0622488200       -0.0238298653
        0.0622488200       -0.0257566976
        0.0622488200       -0.0276426330
        0.0622488200       -0.0294926732
        0.0622488200       -0.0313009237
        0.0622488200       -0.0330587773
        0.0622488200       -0.0347994575
        0.0622488200       -0.0365412438
        0.0622488200       -0.0382860958
        0.0622488200       -0.0400303407
        0.0622488200       -0.0417719919
        0.0622488200       -0.0434988298
        0.0622488200       -0.0451796831
        0.0622488200       -0.0467880931
        0.0622488200       -0.0483550710
        0.0622488200       -0.0499528441
        0.0622488200       -0.0515433852
        0.0622488200       -0.0531048673
        0.0622488200       -0.0546992234
        0.0622488200       -0.0562588824
        0.0622488200       -0.0578239675
        0.0622488200       -0.0594405774
        0.0622488200       -0.0611197542
        0.0622488200       -0.0628188038
        0.0622488200       -0.0645249173
        0.0622488200       -0.0662787549
        0.0622488200       -0.0681037918
        0.0622488200       -0.0700130365
        0.0622488200       -0.0719810951
        0.0622488200       -0.0739671679
        0.0622488200       -0.0759565275
        0.0622488200       -0.0779463475
        0.0514300277       -0.0218705800
        0.0531297940       -0.0218705800
        0.0548748411       -0.0218705800
        0.0566578013       -0.0218705800
        0.0584848140       -0.0218705800
        0.0603545864       -0.0218705800
        0.0017840123        0.0286557966
        0.0035659584        0.0282026338
        0.0053229147        0.0276552625
        0.0070225605        0.0270164061
        0.0086833669        0.0262906357
        0.0103209369        0.0254805185
        0.0119050375        0.0246104077
        0.0134359895        0.0236889029
        0.0149140166        0.0227236233
        0.0163625612        0.0217050980
        0.0177879349        0.0206324219
        0.0191667752        0.0195280362
        0.0204993325        0.0183983964
        0.0218139590        0.0172239773
        0.0231118877        0.0160060741
        0.0243898043        0.0147503040
        0.0256386368        0.0134688389
        0.0268265394        0.0122001514
        0.0279831993        0.0109182315
        0.0291066354        0.0096291417
        0.0301886417        0.0083466071
        0.0312354982        0.0070674764
        0.0322572564        0.0057827454
        0.0332601665        0.0044868782
        0.0342678656        0.0031500556
        0.0352627355        0.0017960497
        0.0362341317        0.0004411668
        0.0371793523       -0.0009083514
        0.0380920309       -0.0022405754
        0.0389875808       -0.0035756754
        0.0398972609       -0.0049601183
        0.0408121708       -0.0063812784
        0.0416973372       -0.0077836820
        0.0425507766       -0.0091613465
        0.0434150409       -0.0105820250
        0.0442525296       -0.0119831796
        0.0450608748       -0.0133584521
        0.0458707892       -0.0147588822
        0.0466829415       -0.0161857972
        0.0474727745       -0.0175952247
        0.0482494374       -0.0190019957
        0.0490221186       -0.0204220710
       -0.0105869783        0.0290328500
       -0.0087393715        0.0290328500
       -0.0069213506        0.0290328500
       -0.0051523753        0.0290328500
       -0.0034192944        0.0290328500
       -0.0016943974        0.0290328500
       -0.0124497600       -0.0270510864
       -0.0124497600       -0.0250939317
       -0.0124497600       -0.0231751945
       -0.0124497600       -0.0212881429
       -0.0124497600       -0.0194420731
       -0.0124497600       -0.0176442131
       -0.0124497600       -0.0158582134
       -0.0124497600       -0.0140969674
       -0.0124497600       -0.0123350781
       -0.0124497600       -0.0105647149
       -0.0124497600       -0.0088309583
       -0.0124497600       -0.0071635511
       -0.0124497600       -0.0055465018
       -0.0124497600       -0.0039510385
       -0.0124497600       -0.0023749335
       -0.0124497600       -0.0007653357
       -0.0124497600        0.0008251494
       -0.0124497600        0.0023846805
       -0.0124497600        0.0039669210
       -0.0124497600        0.0056006418
       -0.0124497600        0.0072323656
       -0.0124497600        0.0088505024
       -0.0124497600        0.0104861244
       -0.0124497600        0.0121812721
       -0.0124497600        0.0139380079
       -0.0124497600        0.0157162733
       -0.0124497600        0.0175060230
       -0.0124497600        0.0193333632
       -0.0124497600        0.0211902932
       -0.0124497600        0.0230942128
       -0.0124497600        0.0250525763
       -0.0124497600        0.0270384839
        0.0297700538        0.0070609153
        0.0610648126       -0.0237306173
       -0.0111375065       -0.0028720545
        0.0609836497       -0.0317864733
        0.0607223224       -0.0767502382
        0.0603102406       -0.0749565029
        0.0590485712       -0.0736133432
        0.0487852279       -0.0751297017
        0.0606326640       -0.0729102244
        0.0576297607       -0.0711537357
        0.0590476191       -0.0719226949
        0.0589116532       -0.0700158319
        0.0606160535       -0.0709489898
        0.0605621685       -0.0690289680
       -0.0003951781       -0.0277442879
        0.0572261439       -0.0731244491
        0.0580464209       -0.0749608172
        0.0589024701       -0.0766400924
        0.0597731878       -0.0782872052
       -0.0102001746        0.0275412394
       -0.0105506403        0.0259121491
        0.0521623633       -0.0751734587
        0.0532673299       -0.0734241795
        0.0552009085       -0.0732967569
        0.0561189033       -0.0748993598
        0.0569689745       -0.0765887745
        0.0578108172       -0.0782615428
        0.0560447461       -0.0714704301
        0.0395262137       -0.0603783266
        0.0073253397        0.0252688133
        0.0541437662       -0.0750276946
        0.0550389371       -0.0766096899
        0.0559180670       -0.0782487521
        0.0132662332        0.0222435066
       -0.0108272466        0.0239940200
       -0.0110037668        0.0221256621
       -0.0109479319        0.0203443652
       -0.0062137379        0.0270838108
       -0.0110360299       -0.0251186496
       -0.0103034019       -0.0233429930
        0.0095936486       -0.0308342788
        0.0606293203       -0.0670773409
        0.0607820102       -0.0653120996
        0.0601717919       -0.0252615574
       -0.0083176709        0.0268958026
       -0.0088277200        0.0247623355
        0.0530640362       -0.0767526934
        0.0540992156       -0.0782834372
        0.0609332183       -0.0374076381
       -0.0111241336       -0.0219087218
       -0.0080144107       -0.0276198570
        0.0063092010       -0.0280886911
       -0.0043737889        0.0271977691
       -0.0097778992       -0.0269030541
        0.0505093441       -0.0749712170
        0.0514701302       -0.0733969205
        0.0524301864       -0.0717701892
        0.0231991634        0.0141190169
       -0.0070273692        0.0252808036
        0.0523874013       -0.0784229290
       -0.0033003994       -0.0278137721
       -0.0092366397        0.0228495454
       -0.0113349668       -0.0186323025
       -0.0108654548        0.0185546798
        0.0593327446       -0.0236500372
        0.0583701227       -0.0252184828
       -0.0099971447       -0.0187708914
       -0.0064263062       -0.0273315396
       -0.0108234928       -0.0202427258
        0.0574462730       -0.0235952932
        0.0562564433       -0.0253270942
       -0.0096237949        0.0212514750
        0.0082507817       -0.0300540084
        0.0066555976       -0.0294474467
        0.0050003040       -0.0288898499
        0.0032327640       -0.0282516254
        0.0014638681       -0.0275598653
        0.0074574188        0.0238263796
        0.0057341064        0.0258412662
       -0.0052341871        0.0255714218
       -0.0016763984       -0.0270113601
        0.0542304788       -0.0716967806
        0.0550638657       -0.0700273762
       -0.0075552291        0.0232956700
        0.0478794428       -0.0731220429
        0.0608880666       -0.0267932318
       -0.0107064547       -0.0170050683
        0.0592782364       -0.0268159681
       -0.0078695414       -0.0260747174
        0.0385558652       -0.0047713973
       -0.0096039603       -0.0215899849
       -0.0091804178       -0.0248464785
       -0.0085593531       -0.0230291011
        0.0105378171        0.0240019876
       -0.0090768830        0.0197023868
       -0.0113031658        0.0078767819
        0.0505678787       -0.0772940711
       -0.0059108519        0.0238392046
       -0.0026337680        0.0272391414
       -0.0034996128        0.0257185264
        0.0116896046        0.0228450414
        0.0040853465        0.0263434781
        0.0585982595       -0.0679170397
       -0.0009358947        0.0272108033
       -0.0047463032       -0.0268212543
       -0.0031176430       -0.0260861242
       -0.0080851541        0.0214651674
       -0.0061004762       -0.0255815428
        0.0610840907       -0.0621147580
       -0.0090516743       -0.0199272220
        0.0120940560       -0.0317268837
       -0.0048614406        0.0227415199
        0.0601450764       -0.0328688570
        0.0575776299       -0.0268205133
        0.0570038184       -0.0694643242
        0.0556275226       -0.0685747998
        0.0555960084       -0.0235379216
        0.0539124855       -0.0233677379
        0.0450866977       -0.0691763324
        0.0126178674        0.0199625105
        0.0471294060       -0.0714171527
        0.0608929125       -0.0636198562
       -0.0074010617       -0.0243441786
       -0.0042559162        0.0241968720
        0.0241620446        0.0129717571
        0.0607059199       -0.0303348621
        0.0604199111       -0.0285085813
        0.0218911521       -0.0393427375
        0.0257463402       -0.0432053308
        0.0122215588        0.0212281431
       -0.0108944272        0.0168037862
       -0.0108932075        0.0151460666
       -0.0068968395       -0.0226484787
        0.0183250279        0.0186912257
       -0.0108075271       -0.0133229804
        0.0607240964       -0.0388860155
       -0.0110802393       -0.0098760472
       -0.0063027725        0.0217502668
        0.0279423103       -0.0446392239
        0.0156918608        0.0206412362
        0.0567533249       -0.0675664364
       -0.0108372284       -0.0151386167
        0.0466046648       -0.0697016124
        0.0584654753       -0.0283224861
        0.0131373034       -0.0327531108
        0.0045621834        0.0246795152
        0.0154325927       -0.0338366140
        0.0496765625       -0.0733229192
        0.0506573411       -0.0717241618
        0.0516234043       -0.0701671295
        0.0605173228       -0.0343961255
        0.0007309451        0.0270586775
       -0.0002159254        0.0256485996
        0.0252549117        0.0117734508
        0.0248469605        0.0103474494
        0.0238506050        0.0114454609
        0.0235863489        0.0101050950
       -0.0015646006       -0.0253495358
        0.0610459323       -0.0430248124
        0.0601172993       -0.0420839354
        0.0592682145       -0.0659461514
        0.0583328877       -0.0648374691
        0.0606044986       -0.0360598815
        0.0533442605       -0.0701462610
        0.0541201085       -0.0686098051
       -0.0079730378       -0.0213079902
       -0.0018411192        0.0257318527
       -0.0026648773        0.0242623341
        0.0447937672       -0.0674710000
        0.0296729050       -0.0468916492
        0.0089561053        0.0243363739
        0.0098968770        0.0227832666
       -0.0057243184       -0.0238911712
        0.0348115542       -0.0532183624
       -0.0093466599       -0.0159582594
       -0.0072348556        0.0200981090
        0.0594887182       -0.0642114844
        0.0024067331        0.0267528517
        0.0522613637       -0.0232393368
       -0.0056510912        0.0200948694
       -0.0064003154        0.0187720413
        0.0268370960       -0.0440365686
        0.0326524336       -0.0509702681
        0.0323460407        0.0041541373
        0.0180415290       -0.0358208275
        0.0060875630        0.0241906932
       -0.0044602153       -0.0250606090
       -0.0029332343       -0.0244592001
       -0.0108495129        0.0135902003
        0.0188087939        0.0171064841
        0.0107007039        0.0214424689
        0.0605626903       -0.0405325790
        0.0320534081       -0.0494376739
        0.0262739219        0.0105647933
       -0.0078839159        0.0184905282
       -0.0106038257       -0.0114265428
       -0.0111891729       -0.0013836964
       -0.0112582139        0.0016231369
       -0.0112161546        0.0001361952
        0.0595609330       -0.0313340637
       -0.0069316925        0.0174940449
        0.0576193931       -0.0662324868