 VARIABLES = "X",  "Y"
 ZONE N=       13534 , E=       19266 , F=FEPOINT, ET=QUADRILATERAL
        0.0400102543       -0.0421066479
       -0.0000102440        0.0010695239
        0.0000000000       -0.0275831900
       -0.0100000000       -0.0275831900
        0.0400000100       -0.0703197000
        0.0500000100       -0.0703197000
        0.0500000100       -0.0151533300
        0.0400000100       -0.0151533300
       -0.0000000000        0.0275831900
       -0.0100000000        0.0275831900
        0.0400044420       -0.0419298800
        0.0399827219       -0.0416838643
        0.0399431814       -0.0413964206
        0.0398841229       -0.0410787462
        0.0398030660       -0.0407272546
        0.0397060195       -0.0403214917
        0.0395904653       -0.0398403486
        0.0394636899       -0.0393145111
        0.0393344228       -0.0387806847
        0.0392042861       -0.0382457965
        0.0390729188       -0.0377088858
        0.0389408323       -0.0371714182
        0.0388083033       -0.0366346076
        0.0386752746       -0.0360985537
        0.0385417570       -0.0355630107
        0.0384076598       -0.0350279507
        0.0382730233       -0.0344933614
        0.0381378464       -0.0339593890
        0.0380021721       -0.0334262742
        0.0378660529       -0.0328940886
        0.0377293947       -0.0323626354
        0.0375921351       -0.0318316872
        0.0374542814       -0.0313012224
        0.0373158230       -0.0307714328
        0.0371768472       -0.0302425061
        0.0370373593       -0.0297143965
        0.0368971957       -0.0291868802
        0.0367566380       -0.0286597409
        0.0366154652       -0.0281331449
        0.0364735176       -0.0276073679
        0.0363309069       -0.0270824640
        0.0361876378       -0.0265582313
        0.0360436650       -0.0260345282
        0.0358990092       -0.0255115270
        0.0357537499       -0.0249894948
        0.0356079474       -0.0244686351
        0.0354616033       -0.0239492752
        0.0353148250       -0.0234316701
        0.0351675122       -0.0229153741
        0.0350192681       -0.0223991699
        0.0348696787       -0.0218815523
        0.0347183763       -0.0213613994
        0.0345652398       -0.0208385346
        0.0344105043       -0.0203137791
        0.0342544556       -0.0197881473
        0.0340971543       -0.0192621463
        0.0339385809       -0.0187358177
        0.0337795008       -0.0182099849
        0.0336200932       -0.0176860441
        0.0334590196       -0.0171618483
        0.0332958545       -0.0166355238
        0.0331314546       -0.0161093531
        0.0329666085       -0.0155858446
        0.0328011388       -0.0150647552
        0.0326341845       -0.0145433120
        0.0324657168       -0.0140213634
        0.0322959059       -0.0134996135
        0.0321248181       -0.0129783271
        0.0319525842       -0.0124579928
        0.0317793458       -0.0119391627
        0.0316052953       -0.0114222900
        0.0314294952       -0.0109050441
        0.0312513577       -0.0103860154
        0.0310722247       -0.0098664335
        0.0308920203       -0.0093474074
        0.0307094742       -0.0088291549
        0.0305248634       -0.0083113124
        0.0303385508       -0.0077940837
        0.0301506105       -0.0072777373
        0.0299610795       -0.0067623159
        0.0297698727       -0.0062478228
        0.0295770101       -0.0057344638
        0.0293826427       -0.0052225834
        0.0291865043       -0.0047125636
        0.0289894554       -0.0042050835
        0.0287921956       -0.0036991443
        0.0285917142       -0.0031928184
        0.0283874259       -0.0026861828
        0.0281806506       -0.0021799478
        0.0279716129       -0.0016747345
        0.0277603273       -0.0011708399
        0.0275468381       -0.0006684072
        0.0273311093       -0.0001676450
        0.0271126044        0.0003314171
        0.0268925487        0.0008295762
        0.0266709869        0.0013267243
        0.0264449075        0.0018217428
        0.0262151558        0.0023151984
        0.0259824423        0.0028071107
        0.0257466204        0.0032971142
        0.0255076574        0.0037849940
        0.0252657035        0.0042704668
        0.0250204992        0.0047522997
        0.0247738245        0.0052309078
        0.0245244951        0.0057085269
        0.0242679612        0.0061843180
        0.0240063460        0.0066580515
        0.0237403123        0.0071291920
        0.0234696953        0.0075972828
        0.0231943625        0.0080620911
        0.0229140575        0.0085233580
        0.0226284704        0.0089808579
        0.0223373139        0.0094343885
        0.0220402400        0.0098835677
        0.0217370274        0.0103280320
        0.0214272370        0.0107673048
        0.0211105578        0.0112009690
        0.0207865994        0.0116285213
        0.0204548847        0.0120493710
        0.0201150805        0.0124629699
        0.0197666613        0.0128685298
        0.0194101265        0.0132659797
        0.0190418200        0.0136493868
        0.0186664828        0.0140161026
        0.0182920385        0.0143660762
        0.0179190918        0.0146942949
        0.0175527061        0.0149856246
        0.0172074146        0.0152480272
        0.0168730038        0.0154830808
        0.0165585690        0.0156827289
        0.0162710139        0.0158594674
        0.0159920297        0.0160166260
        0.0157006511        0.0161587948
        0.0153957868        0.0162995990
        0.0150850124        0.0164245973
        0.0147958895        0.0165276288
        0.0145447320        0.0166091941
        0.0143395566        0.0166644296
        0.0141662790        0.0167104776
        0.0140104805        0.0167507597
        0.0138543769        0.0167811130
        0.0136926227        0.0168040243
        0.0135250644        0.0168292346
        0.0133528399        0.0168526935
        0.0131772793        0.0168641292
        0.0130048414        0.0168713372
        0.0128386572        0.0168797379
        0.0126751335        0.0168803268
        0.0125067441        0.0168719034
        0.0123225821        0.0168627991
        0.0121302300        0.0168485039
        0.0119339539        0.0168212998
        0.0117331555        0.0167913730
        0.0115291311        0.0167549221
        0.0113221978        0.0167058412
        0.0110996837        0.0166499262
        0.0108534807        0.0165759653
        0.0105780855        0.0164806642
        0.0102678783        0.0163590663
        0.0099331107        0.0162075952
        0.0096075598        0.0160438600
        0.0093064663        0.0158763858
        0.0090231961        0.0157081283
        0.0087424749        0.0155176610
        0.0084441054        0.0153057263
        0.0081327979        0.0150647110
        0.0078109386        0.0148049734
        0.0074871650        0.0145139869
        0.0071519582        0.0142014922
        0.0068134813        0.0138576510
        0.0064720517        0.0134930546
        0.0061350686        0.0131146158
        0.0058118818        0.0127225075
        0.0054959164        0.0123252717
        0.0051891019        0.0119212487
        0.0048910007        0.0115107073
        0.0046040157        0.0110922791
        0.0043229876        0.0106697869
        0.0040492372        0.0102424212
        0.0037826095        0.0098103916
        0.0035227471        0.0093738538
        0.0032691801        0.0089328838
        0.0030213694        0.0084871550
        0.0027796282        0.0080376663
        0.0025432861        0.0075839344
        0.0023122974        0.0071260659
        0.0020868282        0.0066648208
        0.0018669248        0.0062006404
        0.0016530085        0.0057346654
        0.0014439343        0.0052658755
        0.0012408412        0.0047947089
        0.0010434197        0.0043197900
        0.0008521182        0.0038423994
        0.0006687439        0.0033665178
        0.0004993688        0.0029074421
        0.0003593326        0.0025097762
        0.0002596077        0.0022112924
        0.0001871795        0.0019867742
        0.0001290997        0.0017993650
        0.0000827736        0.0016393397
        0.0000438837        0.0014931238
        0.0000147907        0.0013532968
       -0.0000039751        0.0012138479
       -0.0000063828        0.0009263936
        0.0000038116        0.0007913759
        0.0000197075        0.0006644394
        0.0000403050        0.0005462819
        0.0000650149        0.0004359939
        0.0000941050        0.0003318313
        0.0001277163        0.0002315758
        0.0001661994        0.0001337796
        0.0002107071        0.0000380612
        0.0002620347       -0.0000549606
        0.0003207979       -0.0001432026
        0.0003875824       -0.0002249589
        0.0004629210       -0.0002983766
        0.0005462538       -0.0003627382
        0.0006386170       -0.0004153956
        0.0007381230       -0.0004558101
        0.0008415160       -0.0004861871
        0.0009473789       -0.0005068511
        0.0010544452       -0.0005188790
        0.0011616798       -0.0005241377
        0.0012708925       -0.0005234449
        0.0013847562       -0.0005168212
        0.0015044491       -0.0005043179
        0.0016290372       -0.0004852057
        0.0017566427       -0.0004591252
        0.0018856803       -0.0004263344
        0.0020144351       -0.0003867681
        0.0021435693       -0.0003397273
        0.0022774919       -0.0002827772
        0.0024203039       -0.0002130818
        0.0025725371       -0.0001299149
        0.0027375418       -0.0000334104
        0.0029340247        0.0000832327
        0.0031808087        0.0002286636
        0.0035265535        0.0004294648
        0.0039471232        0.0006675363
        0.0043974030        0.0009129331
        0.0048562712        0.0011513434
        0.0053213638        0.0013795710
        0.0057926009        0.0015956967
        0.0062701230        0.0017983101
        0.0067542715        0.0019858112
        0.0072455787        0.0021568935
        0.0077437095        0.0023099061
        0.0082452106        0.0024424495
        0.0087446375        0.0025525549
        0.0092323726        0.0026387991
        0.0096983932        0.0027004073
        0.0101479282        0.0027386987
        0.0105925605        0.0027600036
        0.0110383661        0.0027593759
        0.0114759553        0.0027410812
        0.0118990363        0.0027076297
        0.0123200388        0.0026542875
        0.0127432623        0.0025823414
        0.0131508822        0.0024951978
        0.0135376703        0.0023984030
        0.0139200374        0.0022835916
        0.0143230457        0.0021502877
        0.0147585829        0.0019865646
        0.0152157125        0.0017928544
        0.0156784440        0.0015736194
        0.0161357970        0.0013341414
        0.0165846399        0.0010772593
        0.0170264308        0.0008050890
        0.0174588498        0.0005213025
        0.0178793574        0.0002199090
        0.0182919914       -0.0000945411
        0.0186968672       -0.0004205690
        0.0190935841       -0.0007566962
        0.0194839060       -0.0010993385
        0.0198624994       -0.0014539487
        0.0202346327       -0.0018178218
        0.0206010502       -0.0021904962
        0.0209621250       -0.0025678526
        0.0213150221       -0.0029532479
        0.0216597825       -0.0033465629
        0.0219985697       -0.0037453362
        0.0223314480       -0.0041490446
        0.0226588873       -0.0045569918
        0.0229822878       -0.0049675238
        0.0232962860       -0.0053839950
        0.0236045563       -0.0058034097
        0.0239087011       -0.0062273774
        0.0242093623       -0.0066564248
        0.0245067431       -0.0070897081
        0.0248017464       -0.0075257396
        0.0250903101       -0.0079665526
        0.0253741421       -0.0084105451
        0.0256540601       -0.0088568633
        0.0259299612       -0.0093054145
        0.0262020316       -0.0097559381
        0.0264701481       -0.0102081613
        0.0267355283       -0.0106614927
        0.0269995321       -0.0111192162
        0.0272597489       -0.0115830368
        0.0275157007       -0.0120463781
        0.0277675310       -0.0125094915
        0.0280167810       -0.0129749265
        0.0282639202       -0.0134433672
        0.0285088837       -0.0139142949
        0.0287521468       -0.0143870883
        0.0289934183       -0.0148616518
        0.0292311200       -0.0153385311
        0.0294660223       -0.0158169476
        0.0296982719       -0.0162963674
        0.0299278264       -0.0167763754
        0.0301546361       -0.0172564807
        0.0303787660       -0.0177366873
        0.0306016830       -0.0182200913
        0.0308242576       -0.0187084109
        0.0310447915       -0.0191974175
        0.0312639708       -0.0196874015
        0.0314811953       -0.0201787856
        0.0316958233       -0.0206717317
        0.0319087293       -0.0211657105
        0.0321196541       -0.0216607982
        0.0323288148       -0.0221570124
        0.0325363433       -0.0226543358
        0.0327422168       -0.0231526567
        0.0329464628       -0.0236518726
        0.0331491336       -0.0241520234
        0.0333502817       -0.0246531829
        0.0335499791       -0.0251553034
        0.0337481570       -0.0256583350
        0.0339449788       -0.0261622240
        0.0341407892       -0.0266668657
        0.0343352509       -0.0271723104
        0.0345277232       -0.0276786868
        0.0347188888       -0.0281857495
        0.0349087249       -0.0286936561
        0.0350973482       -0.0292023979
        0.0352846556       -0.0297118705
        0.0354706749       -0.0302220466
        0.0356554887       -0.0307330103
        0.0358391449       -0.0312447147
        0.0360216438       -0.0317570363
        0.0362029611       -0.0322700248
        0.0363831536       -0.0327837470
        0.0365622591       -0.0332981101
        0.0367402720       -0.0338130340
        0.0369172243       -0.0343285858
        0.0370931227       -0.0348447991
        0.0372679639       -0.0353615568
        0.0374417835       -0.0358787464
        0.0376145285       -0.0363964399
        0.0377863413       -0.0369147303
        0.0379571739       -0.0374336317
        0.0381270408       -0.0379529608
        0.0382959969       -0.0384728878
        0.0384642000       -0.0389939567
        0.0386298035       -0.0395101822
        0.0387925921       -0.0400208764
        0.0389473410       -0.0405092214
        0.0390814601       -0.0409352086
        0.0391958360       -0.0412899454
        0.0393007414       -0.0415724764
        0.0393914854       -0.0417906753
        0.0394691461       -0.0419596373
        0.0395376533       -0.0420953744
        0.0396017089       -0.0422103841
        0.0396658214       -0.0423123015
        0.0397360592       -0.0424054969
        0.0398244465       -0.0424843706
        0.0399353106       -0.0424806190
        0.0399865009       -0.0423684211
        0.0400047007       -0.0422442246
       -0.0015357500       -0.0275831900
       -0.0030411146       -0.0275831900
       -0.0045528815       -0.0275831900
       -0.0060333929       -0.0275831900
       -0.0074439397       -0.0275831900
       -0.0087493562       -0.0275831900
        0.0394643996       -0.0683276602
        0.0389121705       -0.0663141526
        0.0383441958       -0.0642859561
        0.0377616053       -0.0622505721
        0.0371660258       -0.0602169313
        0.0365679151       -0.0582225960
        0.0359853731       -0.0563263554
        0.0354327945       -0.0545697859
        0.0348963003       -0.0529035910
        0.0343721360       -0.0513130390
        0.0338713457       -0.0498278894
        0.0334070910       -0.0484811849
        0.0329887810       -0.0472925669
        0.0325744696       -0.0461384867
        0.0321253590       -0.0449135207
        0.0316342255       -0.0436049660
        0.0311082339       -0.0422394765
        0.0305597081       -0.0408550756
        0.0299909373       -0.0394622709
        0.0293983189       -0.0380572286
        0.0287883059       -0.0366601680
        0.0281712949       -0.0352978566
        0.0275496809       -0.0339770092
        0.0269178004       -0.0326874208
        0.0262590889       -0.0314000366
        0.0255541488       -0.0300867007
        0.0248123456       -0.0287766841
        0.0240450035       -0.0274993679
        0.0232346969       -0.0262365564
        0.0223437922       -0.0249502936
        0.0213955241       -0.0236989734
        0.0203925751       -0.0225078801
        0.0193096041       -0.0213747609
        0.0181125361       -0.0203059730
        0.0167828051       -0.0193426250
        0.0152857353       -0.0185368017
        0.0136625647       -0.0179924732
        0.0119425461       -0.0177927159
        0.0102087746       -0.0180074976
        0.0085843853       -0.0186118327
        0.0071083318       -0.0195085720
        0.0057284885       -0.0205932587
        0.0044190036       -0.0217752318
        0.0031299301       -0.0230327869
        0.0019329167       -0.0243954213
        0.0008875206       -0.0259213407
        0.0475998505       -0.0703197000
        0.0453845204       -0.0703197000
        0.0433762514       -0.0703197000
        0.0415637529       -0.0703197000
        0.0500000100       -0.0173468551
        0.0500000100       -0.0194969829
        0.0500000100       -0.0215942338
        0.0500000100       -0.0237019481
        0.0500000100       -0.0257974450
        0.0500000100       -0.0278669125
        0.0500000100       -0.0299120824
        0.0500000100       -0.0319231592
        0.0500000100       -0.0339249790
        0.0500000100       -0.0359419851
        0.0500000100       -0.0378850002
        0.0500000100       -0.0397340479
        0.0500000100       -0.0414893749
        0.0500000100       -0.0431744844
        0.0500000100       -0.0448342932
        0.0500000100       -0.0466245015
        0.0500000100       -0.0485687194
        0.0500000100       -0.0506596550
        0.0500000100       -0.0529087737
        0.0500000100       -0.0553075289
        0.0500000100       -0.0578310056
        0.0500000100       -0.0604225222
        0.0500000100       -0.0629975465
        0.0500000100       -0.0655253736
        0.0500000100       -0.0679452459
        0.0415637529       -0.0151533300
        0.0433762514       -0.0151533300
        0.0453845204       -0.0151533300
        0.0475998505       -0.0151533300
        0.0008875251        0.0292450369
        0.0019329220        0.0307709555
        0.0031299362        0.0321335888
        0.0044190095        0.0333911438
        0.0057284948        0.0345731162
        0.0071083381        0.0356578025
        0.0085843921        0.0365545406
        0.0102087793        0.0371588833
        0.0119425523        0.0373736634
        0.0136625702        0.0371738957
        0.0152857403        0.0366295661
        0.0167828111        0.0358237442
        0.0181125415        0.0348603959
        0.0193096090        0.0337916080
        0.0203925779        0.0326584870
        0.0213955266        0.0314673935
        0.0223437945        0.0302160733
        0.0232347000        0.0289298113
        0.0240450053        0.0276669991
        0.0248123473        0.0263896830
        0.0255541504        0.0250796664
        0.0262590903        0.0237663305
        0.0269178017        0.0224789464
        0.0275496822        0.0211893582
        0.0281712957        0.0198685106
        0.0287883070        0.0185061995
        0.0293983200        0.0171091390
        0.0299909384        0.0157040969
        0.0305597120        0.0143112934
        0.0311082345        0.0129268913
        0.0316342262        0.0115614020
        0.0321253594        0.0102528473
        0.0325744741        0.0090278829
        0.0329887813        0.0078738013
        0.0334070916        0.0066851835
        0.0338713462        0.0053384791
        0.0343721365        0.0038533295
        0.0348963007        0.0022627777
        0.0354327949        0.0005965829
        0.0359853735       -0.0011599865
        0.0365679176       -0.0030562262
        0.0371660260       -0.0050505621
        0.0377616055       -0.0070842027
        0.0383441959       -0.0091195866
        0.0389121706       -0.0111477829
        0.0394643994       -0.0131612905
       -0.0087493562        0.0275831900
       -0.0074439397        0.0275831900
       -0.0060333929        0.0275831900
       -0.0045528815        0.0275831900
       -0.0030411146        0.0275831900
       -0.0015357500        0.0275831900
       -0.0100000000       -0.0262619950
       -0.0100000000       -0.0250135761
       -0.0100000000       -0.0238356687
       -0.0100000000       -0.0227048957
       -0.0100000000       -0.0216080223
       -0.0100000000       -0.0205328132
       -0.0100000000       -0.0194716475
       -0.0100000000       -0.0184234461
       -0.0100000000       -0.0173928061
       -0.0100000000       -0.0163859291
       -0.0100000000       -0.0153979923
       -0.0100000000       -0.0144190912
       -0.0100000000       -0.0134458915
       -0.0100000000       -0.0124782424
       -0.0100000000       -0.0115181962
       -0.0100000000       -0.0105648439
       -0.0100000000       -0.0096219185
       -0.0100000000       -0.0086879151
       -0.0100000000       -0.0077599577
       -0.0100000000       -0.0068428721
       -0.0100000000       -0.0059481997
       -0.0100000000       -0.0050586674
       -0.0100000000       -0.0041654663
       -0.0100000000       -0.0032691594
       -0.0100000000       -0.0023735215
       -0.0100000000       -0.0014838472
       -0.0100000000       -0.0006021073
       -0.0100000000        0.0002748688
       -0.0100000000        0.0011476373
       -0.0100000000        0.0020136768
       -0.0100000000        0.0028817933
       -0.0100000000        0.0037778125
       -0.0100000000        0.0047043271
       -0.0100000000        0.0056448856
       -0.0100000000        0.0065831043
       -0.0100000000        0.0075175604
       -0.0100000000        0.0084551450
       -0.0100000000        0.0093964671
       -0.0100000000        0.0103403143
       -0.0100000000        0.0112854369
       -0.0100000000        0.0122311886
       -0.0100000000        0.0131779386
       -0.0100000000        0.0141250088
       -0.0100000000        0.0150790006
       -0.0100000000        0.0160370844
       -0.0100000000        0.0170085465
       -0.0100000000        0.0179882816
       -0.0100000000        0.0189643533
       -0.0100000000        0.0199340162
       -0.0100000000        0.0209029572
       -0.0100000000        0.0218827722
       -0.0100000000        0.0228928067
       -0.0100000000        0.0239591013
       -0.0100000000        0.0251011016
       -0.0100000000        0.0263155751
        0.0486985194       -0.0220139090
        0.0484272054       -0.0540793533
        0.0474737996       -0.0643900366
        0.0472064444       -0.0588461334
        0.0476712728       -0.0616792913
        0.0455627998       -0.0628444702
        0.0449764921       -0.0607724260
        0.0401659122       -0.0648751514
        0.0404787702       -0.0626467372
        0.0432005983       -0.0626439915
        0.0422281854       -0.0605299883
        0.0027532831        0.0300938881
        0.0022928447       -0.0218134289
        0.0445508908       -0.0646483671
        0.0480810028       -0.0665564906
        0.0469639933       -0.0683547135
        0.0457677203       -0.0665010215
        0.0256148452        0.0226722410
        0.0441823501       -0.0585580665
        0.0421040852       -0.0646555685
        0.0409801343       -0.0666300805
        0.0479377577       -0.0562464486
        0.0456050525       -0.0565261341
        0.0416042380       -0.0582958428
        0.0432452571       -0.0666263236
        0.0443983879       -0.0684456726
        0.0477910076       -0.0520169865
        0.0465948333       -0.0542458671
        0.0454462853       -0.0524664266
        0.0444128450       -0.0544438150
        0.0396790283       -0.0600894476
        0.0382386738       -0.0586307502
        0.0152094212       -0.0173372633
        0.0107156323       -0.0152752612
        0.0396496521       -0.0576534357
        0.0432141517       -0.0563925462
        0.0485449502       -0.0198054439
        0.0418658348       -0.0686512440
        0.0378233176       -0.0568658756
        0.0410713766       -0.0560915340
        0.0474582990       -0.0177040702
        0.0049961536        0.0320153483
        0.0058247119        0.0331388265
        0.0373026468       -0.0549706361
        0.0483737333       -0.0256781680
        0.0105887778       -0.0165920749
        0.0071849267       -0.0177429923
        0.0087593076       -0.0170105519
        0.0460737139       -0.0165290339
        0.0478097734       -0.0234111536
        0.0471861184       -0.0398936517
        0.0484551794       -0.0405450459
        0.0471263415       -0.0215094877
        0.0012360959       -0.0229120175
        0.0002899159       -0.0244786562
        0.0480589924       -0.0496998065
        0.0423690314       -0.0544003969
        0.0442793689       -0.0166562705
        0.0391605743       -0.0555736643
        0.0117216807        0.0364919122
        0.0487559148       -0.0296989213
        0.0477638143       -0.0277799949
        0.0463677740       -0.0263074933
        0.0464101005       -0.0196523383
        0.0481947272       -0.0387985485
        0.0057674463       -0.0187805260
        0.0070871509        0.0338541479
        0.0453697369       -0.0180761802
        0.0025057260       -0.0204293188
        0.0410179284       -0.0175986942
        0.0423662685       -0.0168171608
        0.0406430160       -0.0164375489
        0.0404528736       -0.0541693653
       -0.0026964114       -0.0248577939
        0.0332769405       -0.0448228923
        0.0085761151        0.0347196583
       -0.0004604089       -0.0230291303
       -0.0022807895       -0.0235145584
        0.0460033290       -0.0228435895
       -0.0012910069       -0.0246724733
       -0.0006285985       -0.0260810845
        0.0483166060       -0.0477619306
        0.0468656595       -0.0294025853
        0.0464634785       -0.0245850666
        0.0434050795       -0.0527318189
        0.0386135469       -0.0537296193
        0.0211265365        0.0302332762
        0.0453368884       -0.0212341548
       -0.0021503791       -0.0261981102
        0.0461590213       -0.0504592107
        0.0442156450       -0.0510205799
        0.0424463322       -0.0513049049
        0.0435133789       -0.0182009984
       -0.0036999150       -0.0260906278
        0.0368446260       -0.0530793587
        0.0359614222       -0.0514611924
       -0.0039804622       -0.0241449502
       -0.0052870113        0.0261366478
        0.0143661827       -0.0162709242
        0.0266234102        0.0198220546
        0.0184003002       -0.0186739083
        0.0192271924       -0.0198474522
        0.0198119187       -0.0188595528
        0.0415818821       -0.0527373566
        0.0258275505        0.0212429886
        0.0244374569        0.0221693150
        0.0233917904        0.0229811406
        0.0246749372        0.0237072041
       -0.0032962253       -0.0225344463
        0.0173448348        0.0341671245
        0.0483127773       -0.0346141282
        0.0024159127        0.0285953910
        0.0372324571       -0.0515001450
        0.0381123706       -0.0508510867
        0.0383176548       -0.0521699094
        0.0167774097       -0.0176859230
        0.0056856881        0.0309317441
        0.0042382173        0.0306281908
        0.0451885770       -0.0252918713
        0.0484566983       -0.0419931906
        0.0083544563        0.0329820792
        0.0124098072       -0.0159765943
        0.0127152587       -0.0142842504
       -0.0015444288       -0.0219994667
        0.0445199800       -0.0196607413
        0.0478110613       -0.0311347323
        0.0161416708       -0.0140523575
        0.0153708945       -0.0150387730
        0.0215219323        0.0288436840
       -0.0007160350        0.0265455474
        0.0242617921        0.0250769110
        0.0058308223       -0.0171365658
        0.0201649202        0.0310962905
        0.0103291857        0.0354356483
        0.0310464885        0.0107925199
        0.0486259821       -0.0372549795
       -0.0037062120        0.0262496188
        0.0485584966       -0.0459940298
        0.0457814852       -0.0279020272
        0.0042559131       -0.0198055267
        0.0098288805        0.0335820482
        0.0028211616       -0.0187914953
        0.0224740560        0.0274949383
       -0.0053484156       -0.0258105335
        0.0159835411       -0.0162666823
        0.0398642904       -0.0525302079
        0.0004540084       -0.0211888168
       -0.0013151664       -0.0207139603
        0.0055995721       -0.0158763212
        0.0114208146       -0.0142310649
        0.0015378177        0.0274638829
        0.0091827308       -0.0155756732
        0.0139079073       -0.0148019423
        0.0448996064       -0.0239723535
        0.0068347657        0.0319175516
        0.0083293823        0.0316658285
        0.0231743276        0.0242211368
        0.0219810804       -0.0224523216
        0.0320181988       -0.0419734180
        0.0330621268       -0.0409188419
        0.0315604709       -0.0403253535
        0.0313777879       -0.0391240325
        0.0182892595       -0.0172879488
        0.0482817172       -0.0328659845
        0.0231894006        0.0259497565
        0.0078846251        0.0305625253
        0.0204389977       -0.0199999805