 VARIABLES = "X",  "Y"
 ZONE N=       13686 , E=       19562 , F=FEPOINT, ET=QUADRILATERAL
        0.0400102543       -0.0421066450
       -0.0000102440        0.0010695246
        0.0160788400       -0.0189151400
       -0.0100000000       -0.0189151400
        0.0400000100       -0.0610217500
        0.0500000100       -0.0610217500
        0.0500000100       -0.0058553800
        0.0400000100       -0.0058553800
        0.0160788400        0.0362512300
       -0.0100000000        0.0362512300
        0.0400043565       -0.0419284543
        0.0399815759       -0.0416738236
        0.0399395992       -0.0413742122
        0.0398774765       -0.0410482648
        0.0397942032       -0.0406900575
        0.0396949330       -0.0402752167
        0.0395773476       -0.0397858013
        0.0394494838       -0.0392557520
        0.0393197128       -0.0387201082
        0.0391890382       -0.0381833079
        0.0390571316       -0.0376445574
        0.0389245785       -0.0371054212
        0.0387915635       -0.0365670179
        0.0386580606       -0.0360293466
        0.0385240432       -0.0354921885
        0.0383894562       -0.0349555060
        0.0382543129       -0.0344192926
        0.0381186354       -0.0338837245
        0.0379824636       -0.0333490634
        0.0378458510       -0.0328153327
        0.0377086596       -0.0322822571
        0.0375708513       -0.0317495963
        0.0374324428       -0.0312174606
        0.0372934580       -0.0306861331
        0.0371539756       -0.0301557061
        0.0370139334       -0.0296260321
        0.0368732303       -0.0290968954
        0.0367321515       -0.0285681381
        0.0365903835       -0.0280399833
        0.0364478562       -0.0275126807
        0.0363046667       -0.0269862202
        0.0361608025       -0.0264603805
        0.0360162042       -0.0259349967
        0.0358708604       -0.0254101251
        0.0357248416       -0.0248859672
        0.0355781592       -0.0243626356
        0.0354306974       -0.0238400256
        0.0352824453       -0.0233179066
        0.0351333807       -0.0227962279
        0.0349835125       -0.0222751533
        0.0348329175       -0.0217548511
        0.0346815502       -0.0212353338
        0.0345293338       -0.0207164503
        0.0343762422       -0.0201980636
        0.0342222738       -0.0196802040
        0.0340673798       -0.0191630561
        0.0339116630       -0.0186467374
        0.0337555780       -0.0181310882
        0.0335987129       -0.0176161602
        0.0334406056       -0.0171022334
        0.0332815759       -0.0165896641
        0.0331218975       -0.0160788878
        0.0329615320       -0.0155697912
        0.0328000985       -0.0150614930
        0.0326373222       -0.0145530737
        0.0324731261       -0.0140442289
        0.0323074778       -0.0135350298
        0.0321403774       -0.0130255541
        0.0319718124       -0.0125158590
        0.0318017512       -0.0120060142
        0.0316302334       -0.0114960780
        0.0314571895       -0.0109861664
        0.0312824855       -0.0104764541
        0.0311068795       -0.0099668267
        0.0309303829       -0.0094573239
        0.0307516535       -0.0089482743
        0.0305707387       -0.0084394959
        0.0303880205       -0.0079308920
        0.0302035239       -0.0074225751
        0.0300172510       -0.0069145189
        0.0298291420       -0.0064066998
        0.0296391414       -0.0058992544
        0.0294473287       -0.0053922857
        0.0292534518       -0.0048858721
        0.0290575346       -0.0043801737
        0.0288609380       -0.0038749513
        0.0286624382       -0.0033702142
        0.0284602190       -0.0028658879
        0.0282551992       -0.0023617290
        0.0280477897       -0.0018580700
        0.0278379092       -0.0013550813
        0.0276255367       -0.0008528533
        0.0274107772       -0.0003516831
        0.0271931858        0.0001482371
        0.0269730526        0.0006474627
        0.0267517861        0.0011465559
        0.0265265764        0.0016442862
        0.0262967895        0.0021407350
        0.0260636903        0.0026363012
        0.0258272560        0.0031305357
        0.0255873717        0.0036231754
        0.0253441186        0.0041141351
        0.0250970861        0.0046028687
        0.0248469272        0.0050892379
        0.0245951830        0.0055745202
        0.0243371187        0.0060573920
        0.0240731003        0.0065381238
        0.0238044024        0.0070166910
        0.0235307988        0.0074925675
        0.0232521232        0.0079655363
        0.0229681673        0.0084352638
        0.0226786417        0.0089013867
        0.0223832751        0.0093636726
        0.0220817092        0.0098216793
        0.0217737265        0.0102749985
        0.0214588125        0.0107232150
        0.0211365851        0.0111659118
        0.0208067185        0.0116024449
        0.0204687956        0.0120320650
        0.0201224878        0.0124541392
        0.0197673118        0.0128677907
        0.0194039056        0.0132727658
        0.0190283401        0.0136627607
        0.0186459705        0.0140357818
        0.0182644986        0.0143911732
        0.0178850255        0.0147224420
        0.0175140800        0.0150154510
        0.0171632020        0.0152806577
        0.0168205089        0.0155174782
        0.0165001360        0.0157187412
        0.0162065917        0.0158981125
        0.0159172926        0.0160541169
        0.0156165014        0.0161989306
        0.0152997232        0.0163403716
        0.0149776052        0.0164637003
        0.0146769597        0.0165679682
        0.0144307248        0.0166406904
        0.0142331047        0.0166923401
        0.0140688049        0.0167364151
        0.0139125052        0.0167712803
        0.0137524377        0.0167958644
        0.0135883339        0.0168193189
        0.0134211003        0.0168445478
        0.0132536330        0.0168604729
        0.0130840519        0.0168676873
        0.0129143881        0.0168762489
        0.0127467469        0.0168815639
        0.0125798880        0.0168760610
        0.0124066020        0.0168666997
        0.0122240943        0.0168570224
        0.0120362218        0.0168365104
        0.0118427493        0.0168075506
        0.0116408031        0.0167765134
        0.0114349366        0.0167334787
        0.0112213114        0.0166809056
        0.0109882261        0.0166186551
        0.0107326596        0.0165349037
        0.0104531755        0.0164342898
        0.0101401386        0.0163032833
        0.0098130887        0.0161495202
        0.0095034311        0.0159866244
        0.0092179941        0.0158266387
        0.0089497811        0.0156592119
        0.0086769229        0.0154727666
        0.0083848341        0.0152609345
        0.0080786460        0.0150218838
        0.0077641194        0.0147646720
        0.0074508732        0.0144806089
        0.0071228755        0.0141734382
        0.0067908179        0.0138338531
        0.0064572799        0.0134768849
        0.0061250414        0.0131028568
        0.0058024291        0.0127108566
        0.0054853798        0.0123117027
        0.0051771129        0.0119050712
        0.0048771232        0.0114910712
        0.0045880126        0.0110685317
        0.0043049262        0.0106420759
        0.0040295316        0.0102110373
        0.0037619783        0.0097762971
        0.0035011811        0.0093369296
        0.0032461648        0.0088921057
        0.0029980116        0.0084443707
        0.0027565160        0.0079939303
        0.0025206092        0.0075396236
        0.0022907889        0.0070826774
        0.0020662279        0.0066219602
        0.0018463491        0.0061564445
        0.0016321117        0.0056882651
        0.0014231154        0.0052185841
        0.0012204122        0.0047463391
        0.0010235030        0.0042709222
        0.0008331341        0.0037940268
        0.0006498345        0.0033162720
        0.0004830964        0.0028621779
        0.0003534454        0.0024925905
        0.0002609557        0.0022154150
        0.0001915614        0.0020005682
        0.0001339035        0.0018152976
        0.0000865075        0.0016525888
        0.0000463440        0.0015034126
        0.0000160995        0.0013604597
       -0.0000037072        0.0012175264
       -0.0000061948        0.0009226685
        0.0000046086        0.0007835822
        0.0000211186        0.0006551569
        0.0000417743        0.0005389617
        0.0000663780        0.0004305824
        0.0000957663        0.0003264751
        0.0001301346        0.0002249344
        0.0001694406        0.0001262466
        0.0002142885        0.0000310166
        0.0002656255       -0.0000608739
        0.0003246748       -0.0001484380
        0.0003921635       -0.0002299521
        0.0004687066       -0.0003033557
        0.0005534349       -0.0003675132
        0.0006467846       -0.0004192384
        0.0007463482       -0.0004586308
        0.0008495952       -0.0004881128
        0.0009555682       -0.0005080628
        0.0010636443       -0.0005195658
        0.0011738622       -0.0005243619
        0.0012856423       -0.0005229056
        0.0014009313       -0.0005154482
        0.0015216387       -0.0005020633
        0.0016471044       -0.0004819056
        0.0017754981       -0.0004547339
        0.0019050560       -0.0004208359
        0.0020341462       -0.0003800717
        0.0021639487       -0.0003316073
        0.0022992755       -0.0002727228
        0.0024435490       -0.0002009313
        0.0025971425       -0.0001157946
        0.0027655649       -0.0000167737
        0.0029679075        0.0001032835
        0.0032235420        0.0002536958
        0.0035700464        0.0004544290
        0.0039899344        0.0006913169
        0.0044409419        0.0009360888
        0.0049007995        0.0011737936
        0.0053664635        0.0014009258
        0.0058381163        0.0016157325
        0.0063158006        0.0018167834
        0.0067991926        0.0020022742
        0.0072874286        0.0021705485
        0.0077802096        0.0023202865
        0.0082779548        0.0024503474
        0.0087755453        0.0025586454
        0.0092612169        0.0026432402
        0.0097254305        0.0027030321
        0.0101734985        0.0027405795
        0.0106173749        0.0027604395
        0.0110620922        0.0027589304
        0.0114979194        0.0027395919
        0.0119194783        0.0027055290
        0.0123396188        0.0026513776
        0.0127613535        0.0025788904
        0.0131670244        0.0024912802
        0.0135522432        0.0023945521
        0.0139339280        0.0022791148
        0.0143367996        0.0021454413
        0.0147719992        0.0019812057
        0.0152283944        0.0017871558
        0.0156899747        0.0015678592
        0.0161458505        0.0013286252
        0.0165923109        0.0010726827
        0.0170306215        0.0008024430
        0.0174611511        0.0005197137
        0.0178805214        0.0002190474
        0.0182922539       -0.0000947470
        0.0186963498       -0.0004201415
        0.0190924297       -0.0007556976
        0.0194823685       -0.0010979521
        0.0198606432       -0.0014521661
        0.0202309305       -0.0018141282
        0.0205954278       -0.0021846838
        0.0209564373       -0.0025618259
        0.0213090867       -0.0029465853
        0.0216534147       -0.0033391895
        0.0219917599       -0.0037371987
        0.0223242740       -0.0041402157
        0.0226515442       -0.0045477757
        0.0229752464       -0.0049584019
        0.0232901201       -0.0053756908
        0.0235994661       -0.0057964047
        0.0239040438       -0.0062208080
        0.0242061114       -0.0066517325
        0.0245042295       -0.0070860220
        0.0247994293       -0.0075222673
        0.0250880954       -0.0079631186
        0.0253720012       -0.0084071661
        0.0256520039       -0.0088535521
        0.0259279713       -0.0093021493
        0.0262000397       -0.0097526097
        0.0264680873       -0.0102046562
        0.0267334109       -0.0106578625
        0.0269973921       -0.0111154494
        0.0272562946       -0.0115768257
        0.0275104446       -0.0120367929
        0.0277617524       -0.0124987821
        0.0280105440       -0.0129631953
        0.0282567880       -0.0134297514
        0.0285005681       -0.0138982115
        0.0287424488       -0.0143681622
        0.0289822541       -0.0148394859
        0.0292183715       -0.0153127482
        0.0294515664       -0.0157873205
        0.0296821349       -0.0162628502
        0.0299101342       -0.0167391689
        0.0301356478       -0.0172160633
        0.0303585459       -0.0176931252
        0.0305786053       -0.0181697797
        0.0307963514       -0.0186468859
        0.0310130966       -0.0191268598
        0.0312291544       -0.0196093028
        0.0314437244       -0.0200934165
        0.0316555930       -0.0205789266
        0.0318655460       -0.0210650816
        0.0320734154       -0.0215517792
        0.0322792243       -0.0220389152
        0.0324831127       -0.0225262919
        0.0326849874       -0.0230136400
        0.0328846680       -0.0235003270
        0.0330822018       -0.0239863159
        0.0332786436       -0.0244741607
        0.0334743231       -0.0249645303
        0.0336689780       -0.0254567855
        0.0338624599       -0.0259505034
        0.0340549954       -0.0264453964
        0.0342466641       -0.0269412875
        0.0344365932       -0.0274383093
        0.0346249492       -0.0279360704
        0.0348119306       -0.0284341344
        0.0349974035       -0.0289323346
        0.0351813767       -0.0294304032
        0.0353636000       -0.0299278899
        0.0355444994       -0.0304256545
        0.0357248197       -0.0309257382
        0.0359046473       -0.0314281404
        0.0360835935       -0.0319318578
        0.0362614600       -0.0324363792
        0.0364382485       -0.0329415823
        0.0366140348       -0.0334474860
        0.0367888113       -0.0339540971
        0.0369625945       -0.0344613595
        0.0371353529       -0.0349693052
        0.0373071915       -0.0354779624
        0.0374781129       -0.0359873116
        0.0376480582       -0.0364973259
        0.0378171377       -0.0370080123
        0.0379853154       -0.0375194299
        0.0381526349       -0.0380315118
        0.0383190949       -0.0385442346
        0.0384847023       -0.0390576758
        0.0386493947       -0.0395715003
        0.0388117785       -0.0400812679
        0.0389649361       -0.0405649285
        0.0390977192       -0.0409870592
        0.0392125952       -0.0413378108
        0.0393168236       -0.0416127802
        0.0394046941       -0.0418205763
        0.0394790492       -0.0419800144
        0.0395446913       -0.0421086041
        0.0396068403       -0.0422190493
        0.0396698996       -0.0423182802
        0.0397397886       -0.0424098357
        0.0398288691       -0.0424869951
        0.0399374092       -0.0424780579
        0.0399869294       -0.0423665487
        0.0400047994       -0.0422429961
        0.0141672593       -0.0189151400
        0.0122755206       -0.0189151400
        0.0104112341       -0.0189151400
        0.0085926544       -0.0189151400
        0.0068074622       -0.0189151400
        0.0049971470       -0.0189151400
        0.0031763373       -0.0189151400
        0.0013323478       -0.0189151400
       -0.0005279496       -0.0189151400
       -0.0023504043       -0.0189151400
       -0.0040991493       -0.0189151400
       -0.0057590689       -0.0189151400
       -0.0072859391       -0.0189151400
       -0.0086800140       -0.0189151400
        0.0392488408       -0.0596995242
        0.0385034518       -0.0583874728
        0.0377507708       -0.0570625858
        0.0369893991       -0.0557224014
        0.0362251798       -0.0543772044
        0.0354690874       -0.0530463126
        0.0347317842       -0.0517484942
        0.0339918170       -0.0504459865
        0.0332585729       -0.0491553128
        0.0325501504       -0.0479083306
        0.0318768044       -0.0467230910
        0.0312168833       -0.0455614823
        0.0305538998       -0.0443944830
        0.0298728572       -0.0431956959
        0.0291880372       -0.0419902594
        0.0284929852       -0.0407668124
        0.0277612555       -0.0394788045
        0.0270175450       -0.0381697077
        0.0262864724       -0.0368828564
        0.0255745503       -0.0356297142
        0.0248578787       -0.0343682118
        0.0241274201       -0.0330824413
        0.0233920174       -0.0317879680
        0.0226618015       -0.0305026247
        0.0219107975       -0.0291806897
        0.0211334285       -0.0278123463
        0.0203348095       -0.0264065982
        0.0195256315       -0.0249822641
        0.0187090789       -0.0235449488
        0.0178592478       -0.0220490560
        0.0169810534       -0.0205032375
        0.0477399395       -0.0610217500
        0.0456158998       -0.0610217500
        0.0436104597       -0.0610217500
        0.0417145547       -0.0610217500
        0.0500000100       -0.0081058856
        0.0500000100       -0.0103884739
        0.0500000100       -0.0126655184
        0.0500000100       -0.0149360262
        0.0500000100       -0.0172550255
        0.0500000100       -0.0195440098
        0.0500000100       -0.0217430481
        0.0500000100       -0.0238567807
        0.0500000100       -0.0259306443
        0.0500000100       -0.0279941231
        0.0500000100       -0.0300519520
        0.0500000100       -0.0320697009
        0.0500000100       -0.0340593505
        0.0500000100       -0.0360243364
        0.0500000100       -0.0379529469
        0.0500000100       -0.0398078462
        0.0500000100       -0.0415563988
        0.0500000100       -0.0431492995
        0.0500000100       -0.0446562107
        0.0500000100       -0.0461812543
        0.0500000100       -0.0478060655
        0.0500000100       -0.0496530633
        0.0500000100       -0.0516866130
        0.0500000100       -0.0538946331
        0.0500000100       -0.0562765146
        0.0500000100       -0.0586536328
        0.0417145547       -0.0058553800
        0.0436104597       -0.0058553800
        0.0456158998       -0.0058553800
        0.0477399395       -0.0058553800
        0.0169810534        0.0346631325
        0.0178592478        0.0331173140
        0.0187090789        0.0316214212
        0.0195256315        0.0301841059
        0.0203348095        0.0287597718
        0.0211334285        0.0273540237
        0.0219107975        0.0259856803
        0.0226618015        0.0246637453
        0.0233920174        0.0233784020
        0.0241274201        0.0220839287
        0.0248578787        0.0207981582
        0.0255745503        0.0195366558
        0.0262864724        0.0182835136
        0.0270175450        0.0169966623
        0.0277612555        0.0156875655
        0.0284929852        0.0143995576
        0.0291880372        0.0131761106
        0.0298728572        0.0119706741
        0.0305538998        0.0107718870
        0.0312168833        0.0096048877
        0.0318768044        0.0084432790
        0.0325501504        0.0072580394
        0.0332585729        0.0060110572
        0.0339918170        0.0047203835
        0.0347317842        0.0034178758
        0.0354690874        0.0021200574
        0.0362251798        0.0007891656
        0.0369893991       -0.0005560314
        0.0377507708       -0.0018962158
        0.0385034518       -0.0032211028
        0.0392488408       -0.0045331542
       -0.0086800140        0.0362512300
       -0.0072859391        0.0362512300
       -0.0057590689        0.0362512300
       -0.0040991493        0.0362512300
       -0.0023504043        0.0362512300
       -0.0005279496        0.0362512300
        0.0013323478        0.0362512300
        0.0031763373        0.0362512300
        0.0049971470        0.0362512300
        0.0068074622        0.0362512300
        0.0085926544        0.0362512300
        0.0104112341        0.0362512300
        0.0122755206        0.0362512300
        0.0141672593        0.0362512300
       -0.0100000000       -0.0175916632
       -0.0100000000       -0.0163396933
       -0.0100000000       -0.0151764566
       -0.0100000000       -0.0141016316
       -0.0100000000       -0.0130870197
       -0.0100000000       -0.0120968562
       -0.0100000000       -0.0111217098
       -0.0100000000       -0.0101598400
       -0.0100000000       -0.0092076765
       -0.0100000000       -0.0082648539
       -0.0100000000       -0.0073360899
       -0.0100000000       -0.0064247480
       -0.0100000000       -0.0055252354
       -0.0100000000       -0.0046308282
       -0.0100000000       -0.0037502453
       -0.0100000000       -0.0028858538
       -0.0100000000       -0.0020238840
       -0.0100000000       -0.0011593437
       -0.0100000000       -0.0002914121
       -0.0100000000        0.0005701704
       -0.0100000000        0.0014448258
       -0.0100000000        0.0023383895
       -0.0100000000        0.0032455326
       -0.0100000000        0.0041630303
       -0.0100000000        0.0050907866
       -0.0100000000        0.0060297887
       -0.0100000000        0.0069762570
       -0.0100000000        0.0079204826
       -0.0100000000        0.0088625313
       -0.0100000000        0.0098068396
       -0.0100000000        0.0107429424
       -0.0100000000        0.0116827556
       -0.0100000000        0.0126277616
       -0.0100000000        0.0135761240
       -0.0100000000        0.0145273029
       -0.0100000000        0.0154814104
       -0.0100000000        0.0164378981
       -0.0100000000        0.0173952113
       -0.0100000000        0.0183518376
       -0.0100000000        0.0193081577
       -0.0100000000        0.0202693919
       -0.0100000000        0.0212439857
       -0.0100000000        0.0222319546
       -0.0100000000        0.0232264088
       -0.0100000000        0.0242239071
       -0.0100000000        0.0252233310
       -0.0100000000        0.0262251647
       -0.0100000000        0.0272316183
       -0.0100000000        0.0282475068
       -0.0100000000        0.0292801574
       -0.0100000000        0.0303366136
       -0.0100000000        0.0314300874
       -0.0100000000        0.0325699589
       -0.0100000000        0.0337552457
       -0.0100000000        0.0349858542
        0.0488717615       -0.0379357565
        0.0445737626       -0.0549937065
        0.0163572866       -0.0172857616
        0.0482379689       -0.0571646679
        0.0471342349       -0.0588454608
        0.0471643896       -0.0247359452
        0.0487269216       -0.0248219302
        0.0460525226       -0.0566149775
        0.0481727906       -0.0180879324
        0.0483110267       -0.0160052897
        0.0437623600       -0.0567636887
        0.0448555470       -0.0587706827
        0.0483164602       -0.0314673149
        0.0486627191       -0.0330647935
        0.0483950896       -0.0232596794
        0.0481044755       -0.0551599392
        0.0350476606        0.0007775252
        0.0481726928       -0.0118518584
        0.0482552125       -0.0139691141
        0.0149990549       -0.0178443978
        0.0426234521       -0.0589101546
        0.0470682761       -0.0076785875
        0.0479647508       -0.0097010260
        0.0463789053       -0.0132634671
        0.0150282667        0.0347345071
        0.0479592811       -0.0262411759
        0.0426049514       -0.0073849318
        0.0446836510       -0.0074619303
        0.0461980485       -0.0540696729
        0.0463561125       -0.0520589153
        0.0480281010       -0.0200605139
        0.0073034860        0.0350102141
       -0.0031179323       -0.0177426731
        0.0469383695       -0.0168856172
        0.0456295691       -0.0093184734
        0.0461950683       -0.0112736065
        0.0481654309       -0.0529614067
        0.0483032872       -0.0508948970
        0.0009282704        0.0350129214
        0.0024765585        0.0349039613
        0.0040130994        0.0351222656
        0.0435523392       -0.0090396613
        0.0466633798       -0.0151464602
        0.0462236881       -0.0184939170
        0.0114564651        0.0351829552
        0.0475491184       -0.0218051083
        0.0427283382       -0.0546940741
        0.0487802408       -0.0279637827
        0.0099480346       -0.0173096462
       -0.0033501629        0.0350528214
       -0.0017754198        0.0348593603
        0.0201844319        0.0258845039
        0.0453195217       -0.0246200591
        0.0461428623       -0.0260901857
        0.0442955041       -0.0107978369
        0.0056428991        0.0346733326
        0.0401570865       -0.0550472909
        0.0447346596       -0.0126556820
        0.0000498611       -0.0177221938
        0.0140847438        0.0335231044
        0.0303186491       -0.0421457404
        0.0385305875       -0.0558012821
        0.0416488592       -0.0569633896
        0.0130999087        0.0347015131
        0.0484677204       -0.0489776571
        0.0481289377       -0.0365121475
        0.0115602979       -0.0175205430
        0.0464756237       -0.0232944860
        0.0370667979       -0.0529481528
        0.0087769836       -0.0169955696
        0.0395175771       -0.0570544551
       -0.0001823969        0.0342757820
        0.0444748799       -0.0529842770
        0.0405716257       -0.0590742562
        0.0016254406        0.0335257521
        0.0447761845       -0.0144501957
        0.0448884619       -0.0234207572
        0.0070857687        0.0335107761
        0.0460289422       -0.0204391405
        0.0425642069       -0.0104340361
        0.0346170614       -0.0492816450
        0.0213307696        0.0245971308
        0.0221495391        0.0235163739
        0.0435439452       -0.0134802720
        0.0109277244       -0.0160475953
        0.0183784926       -0.0207647574
        0.0074563281       -0.0174619257
        0.0454215699       -0.0164886646
        0.0134637313       -0.0173820690
        0.0158272824        0.0330156578
       -0.0015275875        0.0332033657
        0.0451036956       -0.0510381032
        0.0099718703        0.0348770021
        0.0114114246        0.0338897922
        0.0036970655        0.0336300135
        0.0040732310        0.0319064171
        0.0194934802        0.0273311291
        0.0041827281       -0.0175942126
        0.0412175507       -0.0535179256
        0.0217969547       -0.0263908460
        0.0027768661        0.0324000100
        0.0489239745       -0.0407082456
        0.0468680057       -0.0276606343
        0.0029334677        0.0310342540
        0.0481977294       -0.0347173100
        0.0054848953        0.0328346891
        0.0470299840       -0.0328163709
        0.0169049078        0.0315339867
        0.0178472255        0.0301728639
        0.0123851849       -0.0158760590
        0.0475986349       -0.0297033841
        0.0000806595        0.0326027652
        0.0431353517       -0.0120856139
        0.0058320173       -0.0175815654
        0.0222753861       -0.0276427876
        0.0195544179       -0.0219813849
        0.0467587418       -0.0501260129
        0.0139637683        0.0321299398
        0.0173190985       -0.0180276144
        0.0127814694        0.0329896520
       -0.0013417417        0.0316293153
        0.0467262860       -0.0361111840
        0.0442487962       -0.0177827287
        0.0210582647       -0.0250202677
        0.0424705762       -0.0526621590
        0.0070025554        0.0319360754
        0.0452419723       -0.0331557659
        0.0113492045       -0.0146405073
        0.0436808874       -0.0160975322
        0.0236451444       -0.0294033678
        0.0180407139       -0.0192947653
        0.0481807872       -0.0394218117
        0.0418176923       -0.0088659622
        0.0162153057        0.0300893827
        0.0248971040       -0.0319501540
        0.0231599222       -0.0265269191
        0.0487355566       -0.0419634773
       -0.0031915691        0.0337695918
        0.0085175903        0.0342724942
        0.0080067082       -0.0156629323
        0.0025877631       -0.0175041270
       -0.0015934134       -0.0173742722
       -0.0002169221       -0.0163888734
       -0.0048911395        0.0343995647
       -0.0066374550        0.0349971768
        0.0152354866       -0.0163998494
        0.0140230049       -0.0154457394
        0.0065023805       -0.0159791120
       -0.0042885662        0.0328059139
        0.0416335189       -0.0117161180
        0.0271841927       -0.0363375422
        0.0428952656       -0.0146064032
        0.0041660792        0.0304515019
        0.0153214206        0.0311681650
        0.0165990814       -0.0158592255
        0.0176414027       -0.0167794231
        0.0055122462        0.0312787600
        0.0456414492       -0.0288430519
        0.0098591308        0.0332909791
        0.0112521604        0.0323716150
        0.0129597660       -0.0142825319
        0.0195420813       -0.0201751469
        0.0467989142       -0.0378248439
        0.0468966699       -0.0313521054
        0.0291532848       -0.0398705508
        0.0050175399       -0.0161115246
        0.0241833679       -0.0306557970
        0.0252407614       -0.0295903237
        0.0264572241       -0.0298867661
        0.0256558565       -0.0332116228
        0.0339045705        0.0023566603
        0.0363569279       -0.0515545735
        0.0381861349       -0.0543228186
        0.0383829406       -0.0528676891
       -0.0048828630        0.0317665466
        0.0106291859       -0.0134571127
        0.0370568893       -0.0031557509
        0.0257662841       -0.0307933545
        0.0243857158        0.0196972751